Unnamed: 0,Composition,MaterialId,Reduced Formula,Elements,NSites,Volume,Density,Point Group,Space Group,Space Group Number,Crystal System,Corrected Energy,Formation Energy Per Atom,Decomposition Energy Per Atom,Dimensionality Cheon,Bandgap,Is Train,Decomposition Energy Per Atom All,Decomposition Energy Per Atom Relative,Decomposition Energy Per Atom MP,Decomposition Energy Per Atom MP OQMD
336882,F28Lu1Y3Zr4,e01759279b,Y3LuZr4F28,"['F', 'Y', 'Zr', 'Lu']",36,565.7458,3.9288,1,P1,1,triclinic,-263.8036,-4.227,-0.005,3D,,False,0.0,,-0.005,-0.0042
336982,Ag4F24Ga4Pb4,e028e44624,GaAgPbF6,"['F', 'Ga', 'Ag', 'Pb']",36,572.8618,5.7832,222,P2_12_12_1,19,orthorhombic,-174.1338,-2.499,-0.0144,3D,,True,0.0,,-0.0144,-0.014
337592,F24Mo1Te3,e094ee15a2,Te3MoF24,"['F', 'Mo', 'Te']",28,485.1515,3.1992,m,Pm,6,monoclinic,-134.4526,-2.4393,-0.0004,0D,,True,0.0,,-0.0004,-0.0
337601,F24K4Li4Ti4,e095eeafcf,KLiTiF6,"['Li', 'F', 'K', 'Ti']",36,508.6273,2.7149,mm2,Pna2_1,33,orthorhombic,-217.2598,-3.5479,-0.0118,intercalated ion,4.6632,True,0.0,,-0.0118,-0.0092
337913,Ca9F1Si6Tb1,e0cbef342c,Ca9TbSi6F,"['F', 'Si', 'Ca', 'Tb']",17,424.0247,2.7693,m,Cm,8,monoclinic,-71.4839,-0.8433,-0.0083,intercalated ion,0.0249,False,0.0,,-0.0083,-0.0081
337923,F28Pd1Pt2Tb4V1,e0cdebaa4d,Tb4VPdPt2F28,"['F', 'V', 'Pd', 'Tb', 'Pt']",36,525.2117,5.4228,1,P1,1,triclinic,-210.4204,-3.1099,-0.0128,3D,0.0249,True,0.0,,-0.0128,-0.0127
338198,Cs2F21Na1V6,e0fbedb7f1,Cs2NaV6F21,"['F', 'Na', 'V', 'Cs']",30,504.449,3.2701,2,C2,5,monoclinic,-194.6689,-3.2304,-0.0202,intercalated ion,2.2917,False,-0.0,,-0.0202,-0.0122
338235,Bi1F1La6O11,e102c9ef2b,La6BiO11F,"['O', 'F', 'La', 'Bi']",19,320.5114,6.4109,1,P1,1,triclinic,-156.7834,-3.5231,-0.0599,3D,1.6069,True,0.0,,-0.0599,-0.0392
338497,F36P1Y1,e127f201af,YPF36,"['F', 'P', 'Y']",38,694.4574,1.922,1,P1,1,triclinic,-125.9998,-1.1923,-0.2648,intercalated molecule,,True,0.0,,-0.2648,-0.2648
338683,Al6Cs2F21K1,e14a676b03,Cs2KAl6F21,"['F', 'Al', 'K', 'Cs']",30,439.3065,3.2725,2,C2,5,monoclinic,-177.8223,-3.7436,-0.0076,intercalated ion,7.0856,True,0.0,,-0.0076,-0.0076
338738,Cs6F54Sr6Ti12,e1530d3508,CsSrTi2F9,"['F', 'Ti', 'Sr', 'Cs']",78,1415.1833,3.4303,222,C222_1,20,orthorhombic,-503.5549,-3.719,-0.0039,intercalated ion,,False,-0.0,,-0.0039,-0.0038
339189,Ag1F9Pd2,e19c2a8aab,AgPd2F9,"['F', 'Pd', 'Ag']",12,175.9088,4.6415,32,P321,150,trigonal,-49.2493,-1.5711,-0.018,3D,,True,-0.0,,-0.018,-0.018
339623,Cs11F20O40Rb1Sc8Si16,e1e4414fd4,Cs11RbSc8Si16(O2F)20,"['O', 'F', 'Si', 'Sc', 'Rb', 'Cs']",96,1533.5673,3.6559,m,Pm,6,monoclinic,-714.6545,-3.4397,-0.0171,intercalated ion,,True,0.0,,-0.0171,-0.0147
339703,F6H5Na1,e1f29e70f2,NaH5F6,"['H', 'F', 'Na']",12,143.2526,1.6463,1,P1,1,triclinic,-54.0764,-2.0268,-0.0719,intercalated ion,7.344,True,0.0,,-0.0719,-0.0054
340587,F30Re1Tm2Zr5,e2840f4185,Tm2Zr5ReF30,"['F', 'Zr', 'Tm', 'Re']",38,510.0188,5.047,2,C2,5,monoclinic,-269.7373,-3.9015,-0.0088,3D,1.7673,False,0.0,,-0.0088,-0.0076
340626,Ag4F28Nb3Ta1,e289775d44,TaNb3Ag4F28,"['F', 'Nb', 'Ag', 'Ta']",36,606.732,3.8948,1,P1,1,triclinic,-206.7269,-2.7698,-0.0127,2D,0.0025,False,0.0,,-0.0127,-0.0125
341078,F28In1La4Mo3,e2d5f24d08,La4InMo3F28,"['F', 'Mo', 'In', 'La']",36,610.3104,4.0546,1,P1,1,triclinic,-235.2646,-3.5197,-0.0216,3D,,True,0.0,,-0.0216,-0.0214
341236,F30Np7Y1,e2f0fa84aa,YNp7F30,"['F', 'Y', 'Np']",38,611.7265,6.2919,2,C2,5,monoclinic,-303.7903,-3.9301,-0.0272,3D,,True,0.0,,-0.0272,-0.0269
341315,Ba1F14Pb1Ta2,e2ff8a0a82,BaTa2PbF14,"['F', 'Ba', 'Ta', 'Pb']",18,263.2812,6.133,m,Pm,6,monoclinic,-120.8112,-3.5946,-0.0018,intercalated ion,,True,0.0,,-0.0018,-0.0017
341931,F3K3O3Te1,e36a7ee587,K3Te(OF)3,"['O', 'F', 'K', 'Te']",10,181.2937,3.2048,3,R3,146,trigonal,-50.2472,-2.3194,-0.0209,intercalated ion,2.4446,True,0.0,,-0.0209,-0.0209
342232,F20Nb1W3,e39d31c248,NbW3F20,"['F', 'Nb', 'W']",24,406.1309,4.1884,2,C2,5,monoclinic,-157.272,-2.9194,-0.029,0D,2.6653,True,0.0,,-0.029,-0.019
342346,F9O2Ti2,e3b34ac2ab,Ti2O2F9,"['O', 'F', 'Ti']",13,185.7063,2.6711,1,P1,1,triclinic,-80.8432,-2.9195,-0.025,intercalated molecule,0.783,True,0.0,,-0.025,-0.0205
342547,F12K3Mo2Rb3,e3d4acf126,K3Rb3Mo2F12,"['F', 'K', 'Rb', 'Mo']",20,379.1791,3.4752,1,P1,1,triclinic,-110.4829,-2.9791,-0.0212,intercalated ion,,True,0.0,,-0.0212,-0.0211
342845,F1Gd2I2N1,e407476349,Gd2I2NF,"['N', 'F', 'I', 'Gd']",6,155.8547,6.4066,-42m,P-4m2,115,tetragonal,-55.4892,-2.3334,-0.8118,2D,,True,0.0,,-0.8118,-0.0011
343187,F12Mg1Sb1V1,e445404170,MgVSbF12,"['F', 'Mg', 'V', 'Sb']",15,225.8055,3.1253,1,P1,1,triclinic,-82.0959,-2.9563,-0.0377,1D,2.9611,True,0.0,,-0.0377,-0.0368
343564,F28Pd1Tm4V3,e4859d11a5,Tm4V3PdF28,"['F', 'V', 'Pd', 'Tm']",36,496.9948,4.9013,1,P1,1,triclinic,-229.4909,-3.4898,-0.1791,3D,,True,0.0,,-0.1791,-0.0115
343624,F5O4Ti1,e48ee73d02,TiO4F5,"['O', 'F', 'Ti']",10,172.8129,1.9877,1,P1,1,triclinic,-57.0946,-1.985,-0.0662,intercalated molecule,0.3574,True,-0.0,,-0.0662,-0.0575
343730,F28Hf1Tc3Y4,e49ec2fe5f,Y4HfTc3F28,"['F', 'Y', 'Tc', 'Hf']",36,543.562,4.1549,1,P1,1,triclinic,-249.7757,-3.593,-0.0715,3D,1.6623,True,0.0,,-0.0715,-0.0708
343755,Cu1F12Os1Tc1,e4a31c469f,CuTcOsF12,"['F', 'Cu', 'Tc', 'Os']",15,228.7986,4.2077,1,P1,1,triclinic,-80.997,-2.1581,-0.0521,1D,,True,0.0,,-0.0521,-0.0364
344092,F12Rh1Sr1Ta1,e4db462efe,SrTaRhF12,"['F', 'Sr', 'Rh', 'Ta']",15,290.3368,3.4285,1,P1,1,triclinic,-88.871,-3.0014,-0.0147,intercalated ion,,False,0.0,,-0.0147,-0.0144
344233,F3K3O3Te1,e4f146178b,K3Te(OF)3,"['O', 'F', 'K', 'Te']",10,181.0897,3.2084,3,R3,146,trigonal,-50.2469,-2.3194,-0.0209,intercalated ion,2.4556,True,0.0,,-0.0209,-0.0209
344269,F24Ir1Np2Re1,e4f799c12f,Np2ReIrF24,"['F', 'Re', 'Ir', 'Np']",28,502.7811,4.3212,m,Pm,6,monoclinic,-172.0023,-2.8196,-0.0089,0D,0.0012,True,0.0,,-0.0089,-0.0058
344801,Ba2F14Ru1V1,e55015c0e9,Ba2VRuF14,"['F', 'V', 'Ru', 'Ba']",18,283.4083,4.0583,1,P1,1,triclinic,-104.2069,-3.0694,-0.0725,intercalated ion,1.2425,True,0.0,,-0.0725,-0.0551
344875,F28Hf3Tm4W1,e55c642083,Tm4Hf3WF28,"['F', 'Tm', 'Hf', 'W']",36,545.4116,5.8669,1,P1,1,triclinic,-263.3166,-4.1406,-0.0703,3D,,True,0.0,,-0.0703,-0.0247
345061,F3In1S24,e57b75c662,In(S8F)3,"['F', 'S', 'In']",28,959.4546,1.6292,3m,R3m,160,trigonal,-128.5284,-0.7417,-0.3368,0D,,True,0.0,,-0.3368,-0.3367
345084,Ba2Cl4F16,e57ff09147,Ba(ClF4)2,"['F', 'Cl', 'Ba']",22,370.2906,3.2308,-4,I-4,82,tetragonal,-83.0472,-1.8742,-0.0391,intercalated ion,3.3166,False,0.0,,-0.0391,-0.0321
345433,F20Ta1W3,e5bd4ba594,TaW3F20,"['F', 'Ta', 'W']",24,396.2875,4.6614,2,C2,5,monoclinic,-160.2799,-2.9716,-0.0271,0D,3.3136,False,0.0,,-0.0271,-0.017
346229,Ag1Br6F2Np2,e64fc46d30,Np2Ag(Br3F)2,"['F', 'Br', 'Ag', 'Np']",11,421.2911,4.3329,m,Cm,8,monoclinic,-64.8991,-2.0479,-0.0533,2D,0.0001,True,0.0,,-0.0533,-0.0128
346317,F28Hf3Pu4V1,e65e87435a,Pu4Hf3VF28,"['F', 'V', 'Hf', 'Pu']",36,550.3005,6.3198,1,P1,1,triclinic,-293.2638,-3.9921,-0.0602,3D,,True,-0.0,,-0.0602,-0.0599
346407,F8H4Ti1,e66d1341d4,TiH4F8,"['H', 'F', 'Ti']",13,179.982,1.8811,1,P1,1,triclinic,-69.456,-2.5152,-0.0536,intercalated molecule,4.4476,True,-0.0,,-0.0536,-0.0389
347083,F18Li6O9Os6,e6dfb8300f,Li2Os2(OF2)3,"['Li', 'O', 'F', 'Os']",39,556.1745,4.983,32,P3_121,152,trigonal,-248.1504,-2.3178,-0.0754,intercalated ion,0.0115,True,0.0,,-0.0754,-0.0671
347100,Ba10F2O30Os6,e6e261d994,Ba5Os3O15F,"['O', 'F', 'Ba', 'Os']",48,790.9014,6.3672,6mm,P6_3cm,185,hexagonal,-355.4058,-2.429,-0.0765,intercalated ion,,True,0.0,,-0.0765,-0.07
347518,F24Li2Na6Rh4,e72a7bbc48,Na3LiRh2F12,"['Li', 'F', 'Na', 'Rh']",36,510.3549,3.3168,-42m,P-42_1c,114,tetragonal,-175.3372,-2.4514,-0.1173,intercalated ion,0.0008,True,-0.0,,-0.1173,-0.0556
347559,Ag6F18Rh2Se1,e731ccc3d5,Ag6Rh2SeF18,"['F', 'Se', 'Rh', 'Ag']",27,430.1274,4.9182,3,P3,143,trigonal,-114.3777,-1.6575,-0.0378,3D,,True,-0.0,,-0.0378,-0.0375
347562,F5O1Rh2,e733552a77,Rh2OF5,"['O', 'F', 'Rh']",8,99.8016,5.2711,2,C2,5,monoclinic,-42.9449,-1.7139,-0.0208,3D,0.3647,False,-0.0,,-0.0208,-0.02
348350,F16Rb6Sb2,e7b9a12392,Rb3SbF8,"['F', 'Rb', 'Sb']",24,442.9954,3.9745,6mm,P6_3mc,186,hexagonal,-114.5589,-2.9098,-0.0118,intercalated ion,2.4103,True,0.0,,-0.0118,-0.0101
348713,Ba2F14Re1Ta1,e7f56b9805,Ba2TaReF14,"['F', 'Ba', 'Ta', 'Re']",18,276.377,5.4542,m,Pm,6,monoclinic,-117.3394,-3.4688,-0.0386,intercalated ion,1.4118,True,0.0,,-0.0386,-0.014
348938,F16Nb2Rb6,e816404ed0,Rb3NbF8,"['F', 'Rb', 'Nb']",24,438.6761,3.7952,6mm,P6_3mc,186,hexagonal,-135.6953,-3.2927,-0.1768,intercalated ion,2.7766,True,0.0,,-0.1768,-0.0506
349081,F24Mo1Pd3,e82c0b0c45,MoPd3F24,"['F', 'Mo', 'Pd']",28,443.2041,3.264,m,Pm,6,monoclinic,-115.7347,-1.5526,-0.102,0D,0.0057,True,0.0,,-0.102,-0.0025
349181,F28Hf1La4Mo3,e83cd5d070,La4HfMo3F28,"['F', 'Mo', 'La', 'Hf']",36,604.1224,4.2711,1,P1,1,triclinic,-250.442,-3.7412,-0.0392,3D,,True,0.0,,-0.0392,-0.0387
349297,F28La4Re3Tc1,e85071a17c,La4Re3TcF28,"['F', 'Tc', 'La', 'Re']",36,606.4633,4.7757,1,P1,1,triclinic,-241.332,-3.3437,-0.0605,3D,1.2747,True,0.0,,-0.0605,-0.0572
349342,F24Np2,e858ac31eb,NpF12,"['F', 'Np']",26,564.219,2.7369,6,P6_3,173,hexagonal,-125.7304,-2.0754,-0.2076,0D,,True,0.0,,-0.2076,-0.2075
349889,As4F13K1,e8b2574547,KAs4F13,"['F', 'K', 'As']",18,301.0859,3.2306,-4,I-4,82,tetragonal,-90.7365,-2.5634,-0.0008,intercalated ion,5.2951,True,0.0,,-0.0008,-0.0005
349960,F28Lu4Re1Tc3,e8bdc265b7,Lu4ReTc3F28,"['F', 'Tc', 'Lu', 'Re']",36,507.4932,5.6018,1,P1,1,triclinic,-235.767,-3.351,-0.0818,3D,0.8847,True,0.0,,-0.0818,-0.0552
350002,F28Lu4Pt3Tc1,e8c496dd4c,Lu4TcPt3F28,"['F', 'Tc', 'Lu', 'Pt']",36,501.1522,6.3455,1,P1,1,triclinic,-209.2796,-3.0306,-0.0177,3D,1.4859,True,-0.0,,-0.0177,-0.0068
350474,F28Re1Tb4Tc3,e90f03737e,Tb4ReTc3F28,"['F', 'Tc', 'Tb', 'Re']",36,541.2551,5.0555,1,P1,1,triclinic,-236.3636,-3.355,-0.0794,3D,0.8637,True,0.0,,-0.0794,-0.0783
351020,F15Np1Zr3,e96ab76d2c,Zr3NpF15,"['F', 'Zr', 'Np']",19,282.4244,4.6781,3m,R3m,160,trigonal,-142.9109,-3.9815,-0.022,3D,0.2508,True,0.0,,-0.022,-0.0216
351207,Au1F24Ir3,e98f025cab,Ir3AuF24,"['F', 'Ir', 'Au']",28,451.9477,4.5177,m,Pm,6,monoclinic,-121.5819,-1.6399,-0.0272,0D,,True,0.0,,-0.0272,-0.0029
351559,F24Rh3W1,e9ceed6dd5,Rh3WF24,"['F', 'Rh', 'W']",28,471.1746,3.3428,m,Pm,6,monoclinic,-134.4859,-1.9128,-0.0035,0D,0.7638,True,0.0,,-0.0035,-0.0018
351634,Cl1F3I4Ta2,e9da4bf3f0,Ta2I4ClF3,"['F', 'Cl', 'I', 'Ta']",10,343.2368,4.6539,m,Cm,8,monoclinic,-56.5592,-1.9165,-0.0071,1D,1.7416,True,0.0,,-0.0071,-0.0068
352056,F8Pd1Pt1,ea225d4f66,PdPtF8,"['F', 'Pd', 'Pt']",10,136.8247,5.5037,2,C2,5,monoclinic,-42.0056,-1.5463,-0.0117,3D,0.8134,True,0.0,,-0.0117,-0.0117
352175,F15Pm4,ea359c3816,Pm4F15,"['F', 'Pm']",19,324.2078,4.4303,1,P1,1,triclinic,-118.2892,-3.7166,-0.1664,intercalated molecule,0.2407,True,0.0,,-0.1664,-0.1664
352767,F24Ir5V1,ea9b49e9a5,VIr5F24,"['F', 'V', 'Ir']",30,484.6038,5.0302,1,P1,1,triclinic,-158.6195,-1.9823,-0.0527,2D,0.0001,True,0.0,,-0.0527,-0.0526
352835,B16F64Pb7Sr1,eaa80e36f6,SrB16Pb7F64,"['B', 'F', 'Sr', 'Pb']",88,1474.5819,3.296,1,P1,1,triclinic,-533.8102,-3.1469,-0.0824,intercalated ion,,True,0.0,,-0.0824,-0.0823
353003,Cs1F8Hg2,eac1204322,CsHg2F8,"['F', 'Cs', 'Hg']",11,246.7086,4.6178,2,C2,5,monoclinic,-35.4473,-1.6957,-0.2066,intercalated ion,,True,0.0,,-0.2066,-0.073
353239,F20O2Sb2Tc2,eae6fc6c30,TcSbOF10,"['O', 'F', 'Tc', 'Sb']",26,441.8091,3.2003,2,P2,3,monoclinic,-139.6165,-2.4043,-0.046,0D,1.2716,True,0.0,,-0.046,-0.0373
353587,F18Ir2S1,eb1ff84287,Ir2SF18,"['F', 'S', 'Ir']",21,383.9857,3.28,1,P1,1,triclinic,-96.6427,-1.9249,-0.0049,0D,0.9224,True,0.0,,-0.0049,-0.0028
353771,Br2F11Tc2,eb3adef8a7,Tc2Br2F11,"['F', 'Br', 'Tc']",15,297.3632,3.1539,2,C2,5,monoclinic,-76.5731,-2.1034,-0.0945,0D,0.0024,True,0.0,,-0.0945,-0.0822
353870,F12Sr1Tc2,eb4992fddc,SrTc2F12,"['F', 'Sr', 'Tc']",15,267.0539,3.1811,1,P1,1,triclinic,-86.8951,-2.7698,-0.0742,intercalated ion,0.0007,True,0.0,,-0.0742,-0.0709
354030,As1Ba1F12Os1,eb654f1e91,BaAsOsF12,"['F', 'As', 'Ba', 'Os']",15,272.007,3.8488,mm2,Pmm2,25,orthorhombic,-81.2104,-2.6978,-0.067,intercalated ion,,False,0.0,,-0.067,-0.0092
354049,F28In1La4Ru3,eb68329604,La4InRu3F28,"['F', 'Ru', 'In', 'La']",36,610.3104,4.0965,1,P1,1,triclinic,-220.3337,-3.2359,-0.0365,3D,0.0055,True,0.0,,-0.0365,-0.0344
354425,F24Pb1Sb4Sr1,eba691f9cc,SrSb4PbF24,"['F', 'Sr', 'Sb', 'Pb']",30,611.3868,3.3619,-4,I-4,82,tetragonal,-153.7488,-2.8652,-0.0863,intercalated ion,,True,0.0,,-0.0863,-0.0464
354801,F28Pd4Tb1Y3,ebea25c5f3,TbY3Pd4F28,"['F', 'Y', 'Pd', 'Tb']",36,521.2477,4.4067,1,P1,1,triclinic,-200.9666,-2.8526,-0.0474,3D,1.7247,True,0.0,,-0.0474,-0.0474
355798,Cl8F4Mo4,ec8d20db90,MoCl2F,"['F', 'Cl', 'Mo']",16,412.6431,2.9915,m,Cc,9,monoclinic,-94.9962,-1.8237,-0.0192,2D,3.3927,False,0.0,,-0.0192,-0.0079
356203,Br4F16Sr2,ecd566ef8e,Sr(BrF4)2,"['F', 'Br', 'Sr']",22,374.4713,3.5423,-4,I-4,82,tetragonal,-86.4241,-2.087,-0.0291,intercalated ion,3.2515,True,-0.0,,-0.0291,-0.0279
356741,F30Hf5Tc1Tm2,ed319d756a,Tm2Hf5TcF30,"['F', 'Tc', 'Tm', 'Hf']",38,491.862,6.4086,2,C2,5,monoclinic,-278.6022,-4.0042,-0.0183,3D,,False,0.0,,-0.0183,-0.0177
356927,Br7F1V4,ed54cc9eba,V4Br7F,"['F', 'V', 'Br']",12,322.4081,4.0281,3m,R3m,160,trigonal,-67.9785,-1.5227,-0.0894,3D,3.0728,False,0.0,,-0.0894,-0.0893
356960,F28Ir2Tc2Y4,ed589fed58,Y2TcIrF14,"['F', 'Y', 'Tc', 'Ir']",36,535.9271,4.5486,2,P2_1,4,monoclinic,-231.5743,-3.1608,-0.0592,3D,0.1149,False,0.0,,-0.0592,-0.0561
357249,F37O1,ed8b195f08,OF37,"['O', 'F']",38,701.7989,1.7011,1,P1,1,triclinic,-89.4689,-0.3631,-0.3237,intercalated ion,,True,0.0,,-0.3237,-0.3218
357275,C1F34Pb1,ed8e6a914f,PbCF34,"['C', 'F', 'Pb']",36,657.4249,2.1852,1,P1,1,triclinic,-109.7683,-0.8844,-0.2758,0D,,True,0.0,,-0.2758,-0.2757
357603,F28Lu4Ru1Tc3,edc8aa4d43,Lu4Tc3RuF28,"['F', 'Tc', 'Ru', 'Lu']",36,505.9485,5.3395,1,P1,1,triclinic,-230.9932,-3.3064,-0.0828,3D,0.0986,True,0.0,,-0.0828,-0.0564
357741,Ag2F12Pt1Rh1,edde3124ff,Ag2PtRhF12,"['F', 'Rh', 'Ag', 'Pt']",16,241.4294,5.1014,1,P1,1,triclinic,-68.6425,-1.6628,-0.0024,3D,0.004,True,0.0,,-0.0024,-0.0015
358108,Ca9F1Si6Tm1,ee17d25030,Ca9TmSi6F,"['F', 'Si', 'Ca', 'Tm']",17,421.949,2.8223,m,Cm,8,monoclinic,-71.2682,-0.8399,-0.0057,intercalated ion,0.026,True,0.0,,-0.0057,-0.0056
358178,F18Ir3Na6,ee23d0c646,Na2IrF6,"['F', 'Na', 'Ir']",27,408.351,4.2965,32,P321,150,trigonal,-134.3518,-2.4257,-0.1675,intercalated ion,0.0008,False,-0.0,,-0.1675,-0.1554
358744,Ce1F28Hf4Tm3,ee82598a7c,CeTm3Hf4F28,"['F', 'Ce', 'Tm', 'Hf']",36,550.2894,5.7118,1,P1,1,triclinic,-268.4142,-4.3251,-0.0112,3D,,True,0.0,,-0.0112,-0.0099
358926,F20Nb2Os1Sb1,eea4924c9e,Nb2SbOsF20,"['F', 'Nb', 'Sb', 'Os']",24,415.1016,3.5114,1,P1,1,triclinic,-142.1271,-2.8474,-0.0059,1D,1.0606,True,0.0,,-0.0059,-0.0058
359088,F37K1,eebfe20309,KF37,"['F', 'K']",38,698.43,1.7642,1,P1,1,triclinic,-93.9186,-0.5811,-0.4079,intercalated ion,,True,0.0,,-0.4079,-0.3696
359489,F24Np1Pd1Rh2,ef000f7938,NpPdRh2F24,"['F', 'Rh', 'Pd', 'Np']",28,540.4428,3.0885,m,Pm,6,monoclinic,-134.2783,-1.9838,-0.0446,0D,0.0187,True,0.0,,-0.0446,-0.0106
359578,Ba4Cu3F20Ga1,ef0e9a4acc,Ba4GaCu3F20,"['F', 'Cu', 'Ga', 'Ba']",28,428.7443,4.6075,1,P1,1,triclinic,-145.1618,-2.9975,-0.1649,intercalated ion,,True,0.0,,-0.1649,-0.0305
360139,F20In6O40Rb12Sc2Si16,ef7175f845,Rb6ScIn3Si8(O2F)10,"['O', 'F', 'Si', 'Sc', 'Rb', 'In']",96,1533.5673,3.5448,2,P2_1,4,monoclinic,-661.8923,-3.1041,-0.009,intercalated ion,,True,0.0,,-0.009,-0.0007
360177,F24Pt3Te1,ef7abef582,TePt3F24,"['F', 'Te', 'Pt']",28,486.5142,3.9893,m,Pm,6,monoclinic,-114.6595,-1.6939,-0.0024,0D,0.0005,True,0.0,,-0.0024,-0.0022
360238,Br1F6O2Ta1,ef84417638,TaBr(OF3)2,"['O', 'F', 'Br', 'Ta']",10,167.6366,4.03,m,Cm,8,monoclinic,-59.0491,-2.419,-0.0186,0D,2.4291,True,0.0,,-0.0186,-0.0177
360300,F28Pd1Pt3Tm4,ef8ce0b2f6,Tm4PdPt3F28,"['F', 'Pd', 'Tm', 'Pt']",36,510.2853,6.1808,1,P1,1,triclinic,-199.622,-2.9112,-0.2164,3D,,True,0.0,,-0.2164,-0.0489
360509,Ca3F18Na3Sc3,efaef59713,NaCaScF6,"['F', 'Na', 'Ca', 'Sc']",27,413.7837,2.6729,32,P321,150,trigonal,-171.0925,-3.9885,-0.0021,intercalated ion,,True,0.0,,-0.0021,-0.0018
360564,F14Hf2Lu1Tm1,efba7fa118,TmLuHf2F14,"['F', 'Tm', 'Lu', 'Hf']",18,271.753,5.908,1,P1,1,triclinic,-133.5984,-4.3293,-0.0026,3D,6.8683,True,0.0,,-0.0026,-0.002
361006,F28Re1Tc3Y4,f0050a8f87,Y4ReTc3F28,"['F', 'Y', 'Tc', 'Re']",36,537.0753,4.2289,1,P1,1,triclinic,-243.0659,-3.3376,-0.0796,3D,0.892,True,0.0,,-0.0796,-0.0785
361050,Cd1F12Os1Tc1,f00c806ef0,CdTcOsF12,"['F', 'Tc', 'Cd', 'Os']",15,246.8536,4.2286,1,P1,1,triclinic,-79.9428,-2.2996,-0.06,1D,,True,0.0,,-0.06,-0.0592
361639,F28Rh4Tm3Y1,f06ed5aabc,YTm3Rh4F28,"['F', 'Y', 'Rh', 'Tm']",36,509.1337,5.0204,1,P1,1,triclinic,-210.5463,-2.9909,-0.1561,3D,0.0016,False,0.0,,-0.1561,-0.0276
361657,F28Pt1Tb1Tm3V3,f071783cf4,TbTm3V3PtF28,"['F', 'V', 'Tb', 'Tm', 'Pt']",36,506.3244,5.0689,1,P1,1,triclinic,-231.021,-3.5032,-0.1452,3D,1.9464,True,0.0,,-0.1452,-0.0194
361783,F1S27,f085c2d5dc,S27F,"['F', 'S']",28,1019.1538,1.4416,3m,R3m,160,trigonal,-126.1493,-0.4483,-0.3592,intercalated ion,0.0106,False,0.0,,-0.3592,-0.3592
361829,Ag4Cs4F24Zr4,f08df7db67,CsZrAgF6,"['F', 'Zr', 'Ag', 'Cs']",36,696.9088,4.2507,mm2,Pna2_1,33,orthorhombic,-211.5193,-3.2373,-0.0092,intercalated ion,,True,-0.0,,-0.0092,-0.0092
361830,B1F8H5,f08e2e88ed,BH5F8,"['H', 'B', 'F']",14,175.229,1.5905,1,P1,1,triclinic,-69.0672,-2.1523,-0.0523,0D,7.7414,False,0.0,,-0.0523,-0.0353
361901,F30Nb1Pu6Tb1,f09a3feb37,TbPu6NbF30,"['F', 'Nb', 'Tb', 'Pu']",38,570.6954,6.6509,2,C2,5,monoclinic,-304.6003,-3.8661,-0.0274,3D,,True,0.0,,-0.0274,-0.0266
362343,F28Pt2Ru2Tm4,f0e724bdb3,Tm2RuPtF14,"['F', 'Ru', 'Tm', 'Pt']",36,511.2802,5.8461,2,P2_1,4,monoclinic,-211.0616,-3.0263,-0.1934,3D,0.001,True,0.0,,-0.1934,-0.0258
362466,F24K6Li2Se4,f0fd9321f0,K3Li(SeF6)2,"['Li', 'F', 'K', 'Se']",36,635.6719,2.6652,-42m,P-42_1c,114,tetragonal,-163.0152,-2.5742,-0.0922,intercalated ion,,True,0.0,,-0.0922,-0.0228
362975,B1F3S24,f15345e14e,B(S8F)3,"['B', 'F', 'S']",28,971.2968,1.4316,3m,R3m,160,trigonal,-136.0975,-0.8717,-0.4271,0D,,True,-0.0,,-0.4271,-0.4271
363045,F9Na2Re2,f1606917ee,Na2Re2F9,"['F', 'Na', 'Re']",13,210.7678,4.6434,1,P1,1,triclinic,-78.4573,-2.5938,-0.1329,intercalated ion,0.4654,True,-0.0,,-0.1329,-0.0191
363408,Cl7F1N2,f19f6271be,N2Cl7F,"['N', 'F', 'Cl']",10,371.5989,1.3191,1,P1,1,triclinic,-36.7776,-0.5253,-0.3971,0D,2.5579,True,0.0,,-0.3971,-0.3957
363481,F28Gd4Hf3Re1,f1a939686d,Gd4Hf3ReF28,"['F', 'Gd', 'Hf', 'Re']",36,558.2052,5.6004,1,P1,1,triclinic,-297.634,-4.0392,-0.0457,3D,,False,-0.0,,-0.0457,-0.0097
363924,F24K6Li2V4,f1f23a1cb4,K3LiV2F12,"['Li', 'F', 'K', 'V']",36,589.1784,2.5597,-42m,P-42_1c,114,tetragonal,-206.8467,-3.1708,-0.1218,intercalated ion,,True,0.0,,-0.1218,-0.0137
364293,F2In2K12S8,f230a06e05,K6InS4F,"['F', 'S', 'K', 'In']",24,669.1052,2.4652,6mm,P6_3mc,186,hexagonal,-93.2999,-1.5649,-0.0671,intercalated ion,,True,0.0,,-0.0671,-0.0296
364488,F28Tb1Y3Zr4,f2562bb468,TbY3Zr4F28,"['F', 'Y', 'Zr', 'Tb']",36,571.7146,3.8412,1,P1,1,triclinic,-263.9255,-4.2272,-0.0051,3D,6.0149,True,0.0,,-0.0051,-0.0044
364510,F28Hf1Lu4Ru3,f25a5b252b,Lu4HfRu3F28,"['F', 'Ru', 'Lu', 'Hf']",36,512.8628,5.548,1,P1,1,triclinic,-232.6312,-3.4235,-0.0313,3D,0.0015,True,0.0,,-0.0313,-0.0091
364616,F18Pu2S1,f26890b62e,Pu2SF18,"['F', 'S', 'Pu']",21,387.6984,3.6922,m,Cm,8,monoclinic,-126.7053,-2.8394,-0.3275,0D,,True,0.0,,-0.3275,-0.3267
364650,Br16F4Nb4,f26ebee670,NbBr4F,"['F', 'Br', 'Nb']",24,854.8972,3.3527,-4,I-4,82,tetragonal,-115.9695,-1.7386,-0.0119,0D,1.7894,True,0.0,,-0.0119,-0.0119
364707,Cs4F24Na4Zr4,f27798bbc8,CsNaZrF6,"['F', 'Na', 'Zr', 'Cs']",36,696.9088,3.4417,mm2,Pna2_1,33,orthorhombic,-220.6404,-3.6584,-0.0047,intercalated ion,6.7457,True,0.0,,-0.0047,-0.0045
365043,F28La4Mo1Pt3,f2b3609127,La4MoPt3F28,"['F', 'Mo', 'La', 'Pt']",36,604.3887,4.8596,1,P1,1,triclinic,-213.8821,-3.0988,-0.0533,3D,,True,0.0,,-0.0533,-0.0531
365048,F28Pt1Tm4Zr3,f2b3d7bb6c,Tm4Zr3PtF28,"['F', 'Zr', 'Tm', 'Pt']",36,541.7389,5.1387,1,P1,1,triclinic,-244.0758,-3.9149,-0.0587,3D,2.5929,True,0.0,,-0.0587,-0.0165