Unnamed: 0,Composition,MaterialId,Reduced Formula,Elements,NSites,Volume,Density,Point Group,Space Group,Space Group Number,Crystal System,Corrected Energy,Formation Energy Per Atom,Decomposition Energy Per Atom,Dimensionality Cheon,Bandgap,Is Train,Decomposition Energy Per Atom All,Decomposition Energy Per Atom Relative,Decomposition Energy Per Atom MP,Decomposition Energy Per Atom MP OQMD
222536,F12Na1Rb3,941844fca9,Rb3NaF12,"['F', 'Na', 'Rb']",16,301.3585,2.7957,1,P1,1,triclinic,-56.07,-1.8043,-0.0753,intercalated ion,1.9813,True,0.0,,-0.0753,-0.0681
222568,F14Pu2Tm2,941ee73578,TmPuF7,"['F', 'Tm', 'Pu']",18,297.6176,6.0919,2,P2_1,4,monoclinic,-138.5527,-4.128,-0.1839,3D,0.5852,True,0.0,,-0.1839,-0.0156
222602,Ce5F30Pb1Y2,9422a1dcaa,Ce5Y2PbF30,"['F', 'Y', 'Ce', 'Pb']",38,589.309,4.6649,2,C2,5,monoclinic,-252.1951,-3.9089,-0.0161,3D,,True,0.0,,-0.0161,-0.0161
222973,F11O2Tc2,946134108f,Tc2O2F11,"['O', 'F', 'Tc']",15,307.6205,2.3588,1,P1,1,triclinic,-84.0289,-2.159,-0.0804,intercalated ion,0.6571,True,0.0,,-0.0804,-0.0735
223104,Au1F12Mg1Sb1,9476cf0b9a,MgSbAuF12,"['F', 'Mg', 'Sb', 'Au']",15,225.8054,4.1991,1,P1,1,triclinic,-66.4785,-2.309,-0.0542,1D,,True,0.0,,-0.0542,-0.0528
223631,Al8F18K1O16P4Rb5,94d08841a3,KRb5Al8P4(O8F9)2,"['O', 'F', 'Al', 'P', 'K', 'Rb']",52,679.4195,3.4318,m,Pm,6,monoclinic,-346.8342,-3.3775,-0.0177,intercalated ion,,True,0.0,,-0.0177,-0.0146
223642,F34Mo1Te1,94d21a988b,TeMoF34,"['F', 'Mo', 'Te']",36,694.6408,2.0785,1,P1,1,triclinic,-123.6238,-1.2401,-0.272,0D,,False,0.0,,-0.272,-0.2717
223655,F28In1Lu3Tc4,94d3fe8fad,Lu3InTc4F28,"['F', 'Tc', 'In', 'Lu']",36,504.313,5.1487,1,P1,1,triclinic,-225.3565,-3.1688,-0.0778,3D,1.5726,True,0.0,,-0.0778,-0.0576
223692,F28Pt3Ru1Tb4,94d984a4ab,Tb4RuPt3F28,"['F', 'Ru', 'Tb', 'Pt']",36,531.0406,5.7973,1,P1,1,triclinic,-206.5819,-2.9732,-0.0067,3D,0.0838,True,-0.0,,-0.0067,-0.0067
223833,F28Lu2Pt1Tb2Tc3,94f0984ae8,Tb2Lu2Tc3PtF28,"['F', 'Tc', 'Tb', 'Lu', 'Pt']",36,521.6559,5.3759,1,P1,1,triclinic,-226.2452,-3.2572,-0.0568,3D,1.495,False,-0.0,,-0.0568,-0.0413
223869,F20K2Tb3Y3,94f5e100b1,K2Tb3Y3F20,"['F', 'K', 'Y', 'Tb']",28,403.3371,4.9472,3m,R3m,160,trigonal,-193.6128,-4.2807,0.0,,,,0.0,,0.0,0.0
223884,Cl1F23,94f7ac8cb4,ClF23,"['F', 'Cl']",24,421.1609,1.8626,1,P1,1,triclinic,-58.7612,-0.5395,-0.298,0D,,True,0.0,,-0.298,-0.2853
223976,Ce2F22Hf3Tm1,9503fc7936,Ce2TmHf3F22,"['F', 'Ce', 'Tm', 'Hf']",28,436.0152,5.3417,m,Cm,8,monoclinic,-207.0786,-4.2433,-0.0127,3D,0.0882,True,0.0,,-0.0127,-0.0122
224246,F28Pt3Ru1Tb1Y3,952e8d4919,TbY3RuPt3F28,"['F', 'Y', 'Ru', 'Tb', 'Pt']",36,530.163,5.149,1,P1,1,triclinic,-211.5858,-2.9595,-0.0066,3D,0.113,True,0.0,,-0.0066,-0.0066
224840,F18S1Te2,9590df42bc,Te2SF18,"['F', 'S', 'Te']",21,365.0451,2.8623,1,P1,1,triclinic,-93.0207,-2.2948,-0.0008,0D,4.2186,True,0.0,,-0.0008,-0.0007
224947,Cl1F20Sb3,95a45c7c63,Sb3ClF20,"['F', 'Cl', 'Sb']",24,410.9098,3.1549,m,Pm,6,monoclinic,-104.9628,-2.1874,-0.0024,intercalated molecule,2.4724,False,0.0,,-0.0024,-0.0013
225053,F28Ir4Tb1Tm3,95b6d8d8e3,TbTm3Ir4F28,"['F', 'Tb', 'Tm', 'Ir']",36,516.8711,6.3179,1,P1,1,triclinic,-214.4819,-2.9874,-0.1645,3D,0.0006,True,0.0,,-0.1645,-0.0388
225446,F9Ga1O3V3,95f4bb7c87,V3Ga(OF3)3,"['O', 'F', 'V', 'Ga']",16,209.6114,3.4978,1,P1,1,triclinic,-108.448,-2.8826,-0.0048,intercalated ion,2.1134,False,0.0,,-0.0048,-0.0028
225628,Ba2Ce6F26,96162302f0,BaCe3F13,"['F', 'Ba', 'Ce']",34,516.5114,5.1738,mm2,Pmc2_1,26,orthorhombic,-232.0871,-4.2045,-0.0675,intercalated ion,0.0046,True,0.0,,-0.0675,-0.0451
225669,Ac2F14Hf1Ru1,961e5d5b18,Ac2HfRuF14,"['F', 'Ru', 'Hf', 'Ac']",18,329.9975,5.0296,1,P1,1,triclinic,-121.8973,-3.759,-0.099,3D,0.0005,True,0.0,,-0.099,-0.0434
225765,Ag6F18V3,962be7b10e,VAg2F6,"['F', 'V', 'Ag']",27,458.0189,4.1403,2,C2,5,monoclinic,-140.067,-2.2746,-0.0553,3D,,True,0.0,,-0.0553,-0.0406
226007,F28Hf3Ir1Y4,9651137b0c,Y4Hf3IrF28,"['F', 'Y', 'Hf', 'Ir']",36,551.6149,4.8625,1,P1,1,triclinic,-261.1867,-3.9747,-0.0141,3D,0.1626,True,0.0,,-0.0141,-0.0121
226299,F20Pb4Rb4,968316e40a,RbPbF5,"['F', 'Rb', 'Pb']",28,554.1344,4.6467,mm2,Pmc2_1,26,orthorhombic,-128.3218,-2.5471,-0.1551,intercalated ion,2.803,True,0.0,,-0.1551,-0.0185
226335,F34S1W1,9686d7ebae,WSF34,"['F', 'S', 'W']",36,692.034,2.068,1,P1,1,triclinic,-126.2714,-1.2274,-0.2714,0D,,True,0.0,,-0.2714,-0.271
226428,F12Na2V4,96962963be,NaV2F6,"['F', 'Na', 'V']",18,237.8416,3.3353,4mm,P4_2nm,102,tetragonal,-118.1281,-3.1228,-0.0012,intercalated ion,0.8769,True,0.0,,-0.0012,-0.0002
226451,Ca12F8Nb2O48Sb14,9699512657,Ca6NbSb7(O6F)4,"['O', 'F', 'Ca', 'Nb', 'Sb']",84,1153.9604,4.7362,222,C222_1,20,orthorhombic,-584.4275,-2.7328,-0.0037,intercalated ion,inf,False,0.0,,-0.0037,-0.0037
226671,F15H7,96be43b8eb,H7F15,"['H', 'F']",22,286.1009,1.695,1,P1,1,triclinic,-80.7603,-1.2881,-0.2094,0D,3.0354,True,-0.0,,-0.2094,-0.1943
227275,F6O4V1,97207857fe,V(O2F3)2,"['O', 'F', 'V']",11,184.5667,2.0597,1,P1,1,triclinic,-58.9964,-1.6956,-0.0969,0D,,True,0.0,,-0.0969,-0.0889
227739,F28Lu1Pt3Tb3Tc1,976b26999d,Tb3LuTcPt3F28,"['F', 'Tc', 'Tb', 'Lu', 'Pt']",36,525.2161,5.9026,1,P1,1,triclinic,-209.7535,-3.0343,-0.0169,3D,1.559,True,0.0,,-0.0169,-0.0094
227912,Ce3F20K2Tb3,9787381de6,K2Tb3Ce3F20,"['F', 'K', 'Ce', 'Tb']",28,433.4912,5.1916,mm2,Fmm2,42,orthorhombic,-191.4635,-4.2611,-0.043,intercalated ion,0.0001,True,0.0,,-0.043,-0.0292
228435,F28Hf3Re1Y4,97dd0ee665,Y4Hf3ReF28,"['F', 'Y', 'Hf', 'Re']",36,554.2717,4.8212,1,P1,1,triclinic,-267.7472,-4.0568,-0.013,3D,1.8088,False,0.0,,-0.013,-0.0099
228458,F36Sc1Tb1,97e08c0623,TbScF36,"['F', 'Sc', 'Tb']",38,656.8922,2.2443,1,P1,1,triclinic,-124.3379,-1.1726,-0.2498,0D,,True,0.0,,-0.2498,-0.2498
229352,Ac6F1Np1O11,9880ace9e1,Ac6NpO11F,"['O', 'F', 'Ac', 'Np']",19,344.503,8.6472,1,P1,1,triclinic,-166.8188,-3.8318,-0.0801,3D,,True,0.0,,-0.0801,-0.0711
229501,F28Sb3Tc4Tm1,989cd6cb48,TmTc4Sb3F28,"['F', 'Tc', 'Sb', 'Tm']",36,524.1701,4.6194,1,P1,1,triclinic,-210.2357,-2.7336,-0.088,3D,,False,0.0,,-0.088,-0.0462
229661,Ce2F22Hf3In1,98b419602b,Ce2Hf3InF22,"['F', 'In', 'Ce', 'Hf']",28,432.0197,5.1831,m,Cm,8,monoclinic,-198.4311,-3.996,-0.0151,3D,0.0688,True,0.0,,-0.0151,-0.015
229664,Br1Ca1F12Nb1,98b48769a9,CaNbBrF12,"['F', 'Ca', 'Br', 'Nb']",15,273.8186,2.6736,1,P1,1,triclinic,-77.8596,-2.7452,-0.0259,intercalated ion,4.3032,True,0.0,,-0.0259,-0.0257
230343,F24Ir1Re1Te2,9925bf721c,ReTe2IrF24,"['F', 'Te', 'Re', 'Ir']",28,482.2596,3.7517,m,Pm,6,monoclinic,-137.2283,-2.278,-0.0075,0D,0.0069,True,0.0,,-0.0075,-0.0045
230458,Ca1Cl1F11Ir2,9938e124ab,CaIr2ClF11,"['F', 'Cl', 'Ca', 'Ir']",15,270.65,4.1042,1,P1,1,triclinic,-76.2822,-2.2483,-0.0377,intercalated ion,0.0038,False,0.0,,-0.0377,-0.0141
230663,F28Hf3Pd1Y4,995f69c78c,Y4Hf3PdF28,"['F', 'Y', 'Pd', 'Hf']",36,549.7026,4.6202,1,P1,1,triclinic,-256.4948,-3.946,-0.0153,3D,2.0573,True,0.0,,-0.0153,-0.0133
231127,Au1Br3F20,99b58b7632,AuBr3F20,"['F', 'Br', 'Au']",24,434.6109,3.1202,m,Pm,6,monoclinic,-77.2907,-1.2865,-0.0072,1D,,True,0.0,,-0.0072,-0.0065
231320,As2Ca2F2Ir1Ru1,99d4c4a745,Ca2As2IrRuF2,"['F', 'Ca', 'As', 'Ru', 'Ir']",8,136.6592,6.8201,-42m,P-4m2,115,tetragonal,-51.328,-2.0078,-0.0179,intercalated ion,0.0403,True,0.0,,-0.0179,-0.017
231381,F28Gd2La2Tc4,99dedb971d,LaGdTc2F14,"['F', 'Tc', 'La', 'Gd']",36,590.6883,4.2625,2,P2_1,4,monoclinic,-254.1068,-3.3633,-0.1606,3D,,True,0.0,,-0.1606,-0.0979
231804,Ac1F14Ir2Tm1,9a2e402137,AcTmIr2F14,"['F', 'Tm', 'Ir', 'Ac']",18,283.2905,6.1333,1,P1,1,triclinic,-106.9171,-2.9935,-0.1439,3D,,True,0.0,,-0.1439,-0.0334
231906,F24Ir1Rh1Ru2,9a4009fee9,IrRu2RhF24,"['F', 'Ru', 'Rh', 'Ir']",28,448.1129,3.5323,m,Pm,6,monoclinic,-131.5588,-1.819,-0.0062,0D,0.0015,True,0.0,,-0.0062,-0.0017
232115,As1F5O1Rb2,9a610fb724,Rb2AsOF5,"['O', 'F', 'As', 'Rb']",9,169.0642,3.5049,4mm,I4mm,107,tetragonal,-45.0489,-2.6582,-0.0057,intercalated ion,,True,-0.0,,-0.0057,-0.0057
232177,F16Hf3Zr1,9a6d1b0732,Hf3ZrF16,"['F', 'Zr', 'Hf']",20,243.6526,6.3427,1,P1,1,triclinic,-151.0015,-4.0999,-0.0039,3D,5.6501,True,0.0,,-0.0039,-0.0039
232535,F28Hf4Tb3Tm1,9aa773f744,Tb3TmHf4F28,"['F', 'Tb', 'Tm', 'Hf']",36,552.6914,5.6833,1,P1,1,triclinic,-267.6193,-4.3303,-0.0047,3D,,True,0.0,,-0.0047,-0.0031
232981,F28Ir3Ru1Tb4,9af13cdc35,Tb4Ir3RuF28,"['F', 'Ru', 'Tb', 'Ir']",36,532.9714,5.7495,1,P1,1,triclinic,-216.5708,-3.0201,-0.0427,3D,0.001,True,0.0,,-0.0427,-0.0426
233232,Ag6F18Pt3,9b1c5eafd5,Ag2PtF6,"['F', 'Ag', 'Pt']",27,457.5389,5.7141,32,P321,150,trigonal,-111.865,-1.5648,-0.09,3D,1.7273,True,-0.0,,-0.09,-0.0894
233239,Ca1F28Ir4La3,9b1d983558,CaLa3Ir4F28,"['F', 'Ca', 'La', 'Ir']",36,589.8051,4.9484,1,P1,1,triclinic,-210.7237,-2.9176,-0.0574,intercalated ion,0.0005,True,0.0,,-0.0574,-0.0389
234429,Cd1F5Nb1O1,9beb6b581a,NbCdOF5,"['O', 'F', 'Nb', 'Cd']",8,133.7278,3.9277,1,P1,1,triclinic,-49.6575,-3.016,-0.0267,3D,,True,0.0,,-0.0267,-0.0191
235458,F28Pt2Tm3V2Y1,9c9cc02de4,YTm3V2Pt2F28,"['F', 'V', 'Y', 'Tm', 'Pt']",36,507.9265,5.2953,1,P1,1,triclinic,-222.7539,-3.3064,-0.1526,3D,1.8524,True,0.0,,-0.1526,-0.0268
235524,F28Hf3Lu4Tc1,9ca74ed911,Lu4Hf3TcF28,"['F', 'Tc', 'Lu', 'Hf']",36,519.2739,5.9649,1,P1,1,triclinic,-258.9471,-4.0864,-0.026,3D,1.7978,True,0.0,,-0.026,-0.0196
235621,F12Gd2K3Rb3,9cb9387fd5,K3Rb3Gd2F12,"['F', 'K', 'Rb', 'Gd']",20,410.2463,3.7084,1,P1,1,triclinic,-128.6209,-3.5609,-0.0186,intercalated ion,,True,-0.0,,-0.0186,-0.0007
235677,Ce4F28Hf2Ru2,9cc411ab65,Ce2HfRuF14,"['F', 'Ru', 'Ce', 'Hf']",36,541.7661,5.062,2,P2_1,4,monoclinic,-248.9648,-3.7013,-0.0153,3D,,True,-0.0,,-0.0153,-0.0152
235678,F28Hf1Np4Zr3,9cc412f7bb,HfZr3Np4F28,"['F', 'Zr', 'Hf', 'Np']",36,614.4341,5.2216,1,P1,1,triclinic,-283.9512,-3.9733,-0.0443,3D,0.025,True,0.0,,-0.0443,-0.0435
235915,F28Gd4Hf3Ti1,9cebfa56de,Gd4Hf3TiF28,"['F', 'Ti', 'Gd', 'Hf']",36,555.1458,5.2175,1,P1,1,triclinic,-300.0168,-4.2317,-0.0473,3D,,True,-0.0,,-0.0473,-0.0123
235962,F20Tc4,9cf29fefb8,TcF5,"['F', 'Tc']",24,426.139,3.0081,222,P2_12_12_1,19,orthorhombic,-136.2128,-2.3559,-0.0445,1D,0.1849,False,0.0,,-0.0445,-0.0404
236090,F16K4La1Np3,9d07ed317c,K4LaNp3F16,"['F', 'K', 'La', 'Np']",24,387.1498,5.6199,m,Pm,6,monoclinic,-167.6155,-3.7005,-0.0604,intercalated ion,0.0025,True,0.0,,-0.0604,-0.0472
236276,F6Ir1O4,9d29d07c6d,Ir(O2F3)2,"['O', 'F', 'Ir']",11,201.679,3.0481,4mm,I4mm,107,tetragonal,-53.7,-1.2364,-0.0737,0D,,True,0.0,,-0.0737,-0.0665
236356,F6H3V1,9d355c2763,VH3F6,"['H', 'F', 'V']",10,126.7125,2.201,1,P1,1,triclinic,-54.1629,-2.3432,-0.0373,3D,2.1232,True,0.0,,-0.0373,-0.023
236500,F24Mo1Np3,9d4dd55863,Np3MoF24,"['F', 'Mo', 'Np']",28,531.6588,3.9444,m,Pm,6,monoclinic,-186.5697,-3.2502,-0.001,0D,1.1623,True,0.0,,-0.001,-0.0004
236667,F16Pu2Rb6,9d6c34f558,Rb3PuF8,"['F', 'Rb', 'Pu']",24,512.1105,4.2308,6mm,P6_3mc,186,hexagonal,-144.4213,-3.3091,-0.225,intercalated ion,,True,0.0,,-0.225,-0.0236
236832,Bi1F1Lu6O11,9d88363f1a,Lu6BiO11F,"['O', 'F', 'Lu', 'Bi']",19,254.3775,9.49,1,P1,1,triclinic,-156.8669,-3.6585,-0.0284,3D,1.807,True,0.0,,-0.0284,-0.0148
236881,F8K8O32P8Sc6V2,9d91039eaa,K4Sc3VP4(O4F)4,"['O', 'F', 'P', 'K', 'Sc', 'V']",64,918.4595,2.8858,2,P2_1,4,monoclinic,-486.6586,-3.1981,-0.0215,intercalated ion,,True,0.0,,-0.0215,-0.02
236891,Ba2Ce1F12Zr1,9d925cba3d,Ba2CeZrF12,"['F', 'Zr', 'Ba', 'Ce']",16,265.6253,4.5884,222,C222,21,orthorhombic,-107.532,-4.1422,-0.0114,intercalated ion,2.3771,True,0.0,,-0.0114,-0.0103
236960,F2O4Ru2,9d9e36b113,RuO2F,"['O', 'F', 'Ru']",8,99.6771,5.0666,m,Cc,9,monoclinic,-54.7781,-1.5768,-0.0188,3D,0.0028,True,0.0,,-0.0188,-0.0187
237040,Al1F28Ru3Tb4,9da8ff5320,Tb4AlRu3F28,"['F', 'Al', 'Ru', 'Tb']",36,523.4128,4.752,1,P1,1,triclinic,-223.3434,-3.3254,-0.0218,3D,0.0036,True,0.0,,-0.0218,-0.0193
237084,F20Sb3Ta1,9daf9b2d98,TaSb3F20,"['F', 'Sb', 'Ta']",24,399.8892,3.846,2,C2,5,monoclinic,-130.4389,-2.8319,-0.0069,0D,,False,0.0,,-0.0069,-0.0054
237572,Cl1Cu4F3Se8,9e049ad0f4,Cu4Se8ClF3,"['F', 'Cl', 'Cu', 'Se']",16,378.6292,4.2905,1,P1,1,triclinic,-65.9268,-0.8737,-0.0375,2D,0.6267,True,0.0,,-0.0375,-0.0126
237630,F28La1Y3Zr4,9e0d3651c5,LaY3Zr4F28,"['F', 'Y', 'Zr', 'La']",36,587.5738,3.6809,1,P1,1,triclinic,-264.2591,-4.2281,-0.0031,3D,5.9785,False,0.0,,-0.0031,-0.0024
237792,F9Pb1Rh2,9e28b853c7,Rh2PbF9,"['F', 'Rh', 'Pb']",12,181.6351,5.339,32,P321,150,trigonal,-60.2954,-2.0542,-0.0145,3D,0.0026,True,0.0,,-0.0145,-0.0031
238355,F6Ge1O4,9e85fc9f1a,Ge(O2F3)2,"['O', 'F', 'Ge']",11,165.8423,2.5095,1,P1,1,triclinic,-51.605,-1.4292,-0.0707,0D,,False,0.0,,-0.0707,-0.06
238408,Ac1F14La1Np2,9e8cf25943,AcLaNp2F14,"['F', 'La', 'Ac', 'Np']",18,357.9914,5.1296,1,P1,1,triclinic,-136.4434,-4.1517,-0.035,3D,0.0588,True,0.0,,-0.035,-0.0082
238633,F12Os1Ta1Zn1,9eb493f0e2,TaZnOsF12,"['F', 'Zn', 'Ta', 'Os']",15,236.0396,4.6752,1,P1,1,triclinic,-89.4232,-2.8094,-0.0414,1D,,True,0.0,,-0.0414,-0.0412
238718,F21Na1Rb2Rh6,9ec0fde9fe,Rb2NaRh6F21,"['F', 'Na', 'Rb', 'Rh']",30,471.7935,4.2599,2,C2,5,monoclinic,-150.934,-2.1108,-0.0054,intercalated ion,0.87,True,0.0,,-0.0054,-0.0052
238739,F9H3Tb1Tm1,9ec4b3a98e,TbTmH3F9,"['H', 'F', 'Tb', 'Tm']",14,224.4335,3.7132,1,P1,1,triclinic,-82.6981,-3.3005,-0.1196,intercalated molecule,,True,0.0,,-0.1196,-0.0017
239020,F24Np3Pu1,9ef2982ed9,PuNp3F24,"['F', 'Np', 'Pu']",28,529.0684,4.4285,m,Pm,6,monoclinic,-194.7175,-3.419,-0.1387,0D,0.0905,True,0.0,,-0.1387,-0.1382
239086,F28Pt3Tm4V1,9eff2fdc5d,Tm4VPt3F28,"['F', 'V', 'Tm', 'Pt']",36,506.1833,6.0489,1,P1,1,triclinic,-210.9739,-3.1181,-0.2138,3D,1.9371,True,-0.0,,-0.2138,-0.0462
239392,F20La1Rb2Y5,9f356faf32,Rb2LaY5F20,"['F', 'Rb', 'Y', 'La']",28,418.4336,4.5016,4mm,I4mm,107,tetragonal,-196.8606,-4.2643,-0.0336,intercalated ion,6.3179,True,0.0,,-0.0336,-0.0013
239516,As2F16I1Os1,9f46ba8392,As2OsIF16,"['F', 'As', 'I', 'Os']",20,364.1959,3.5151,m,Pm,6,monoclinic,-96.8541,-2.21,-0.0144,intercalated molecule,1.2165,True,-0.0,,-0.0144,-0.0141
239630,F28La4Tc2V2,9f581d2d2b,La2VTcF14,"['F', 'V', 'Tc', 'La']",36,589.0597,3.9056,2,P2_1,4,monoclinic,-239.9062,-3.5487,-0.0657,3D,1.1522,True,-0.0,,-0.0657,-0.0643
239860,F28Mo1Tc3Y4,9f851a79a5,Y4Tc3MoF28,"['F', 'Y', 'Mo', 'Tc']",36,537.0753,3.9499,1,P1,1,triclinic,-243.4369,-3.3923,-0.0821,3D,,True,0.0,,-0.0821,-0.0701
240257,F9Na1Rh2,9fc6b620b3,NaRh2F9,"['F', 'Na', 'Rh']",12,173.4035,3.8284,32,P321,150,trigonal,-57.5442,-2.0241,-0.0814,intercalated ion,0.0022,True,0.0,,-0.0814,-0.0003
240437,As4Ca1F24Na1,9fe038c852,NaCaAs4F24,"['F', 'Na', 'Ca', 'As']",30,492.1423,2.7624,-4,I-4,82,tetragonal,-146.1624,-2.6106,-0.0213,intercalated ion,,False,0.0,,-0.0213,-0.0188
240522,F28Pb5Sn3,9fed0197b2,Sn3Pb5F28,"['F', 'Sn', 'Pb']",36,577.3325,5.5341,1,P1,1,triclinic,-175.6942,-2.5439,-0.023,,,,0.0,,-0.023,-0.0003
240543,F18La1Pu5,9ff034c6d7,LaPu5F18,"['F', 'La', 'Pu']",24,324.1253,8.7138,2,C2,5,monoclinic,-208.755,-4.0864,-0.0218,3D,0.0014,True,0.0,,-0.0218,-0.0218
240614,Cl3F3N2,9ff9667405,N2(ClF)3,"['N', 'F', 'Cl']",8,185.0036,1.7177,1,P1,1,triclinic,-33.608,-0.7069,-0.226,intercalated molecule,2.4617,True,0.0,,-0.226,-0.2212
240643,F30Lu1Pt2Tm1Zr4,9ffd983ed1,TmLuZr4Pt2F30,"['F', 'Zr', 'Tm', 'Lu', 'Pt']",38,500.9042,5.5326,2,C2,5,monoclinic,-245.5975,-3.498,-0.0164,3D,2.455,True,0.0,,-0.0164,-0.0163
240778,F1Ir5O18Rh1Sr4,a0124ae421,Sr4Ir5RhO18F,"['O', 'F', 'Sr', 'Rh', 'Ir']",29,405.6721,7.0465,2,C2,5,monoclinic,-205.6898,-1.9448,-0.1541,intercalated ion,0.003,False,-0.0,,-0.1541,-0.125
241438,F3Ga1S24,a079abd024,Ga(S8F)3,"['F', 'S', 'Ga']",28,959.2994,1.5514,3m,R3m,160,trigonal,-129.9181,-0.7815,-0.363,0D,1.7433,True,0.0,,-0.363,-0.3626
241464,Ac2F14Hf1W1,a07ed4a286,Ac2HfWF14,"['F', 'Hf', 'W', 'Ac']",18,331.1068,5.4279,1,P1,1,triclinic,-129.394,-3.9709,-0.1321,3D,,True,0.0,,-0.1321,-0.0729
241747,Ce7F30Zr1,a0b2f99646,Ce7ZrF30,"['F', 'Zr', 'Ce']",38,627.6527,4.3441,32,R32,155,trigonal,-265.6856,-4.1648,-0.0502,3D,,True,0.0,,-0.0502,-0.0467
241822,Ba11F1Ga6Si8Sr2,a0be30c350,Ba11Sr2Ga6Si8F,"['F', 'Si', 'Ga', 'Sr', 'Ba']",28,868.8447,4.4872,m,Cm,8,monoclinic,-105.3297,-0.62,-0.0092,intercalated ion,inf,False,0.0,,-0.0092,-0.0049
242293,F4S12Se4Tc12,a1112bfc8c,Tc3SeS3F,"['F', 'S', 'Se', 'Tc']",32,727.4993,4.4569,1,P1,1,triclinic,-233.3569,-1.1801,-0.2794,3D,1.1515,True,0.0,,-0.2794,-0.1238
242362,Bi1F6O4,a11d5a9a91,Bi(O2F3)2,"['O', 'F', 'Bi']",11,221.4196,2.9021,4mm,I4mm,107,tetragonal,-49.8633,-1.3375,-0.1081,0D,,True,0.0,,-0.1081,-0.1002
242587,F12Mg1Nb1V1,a141bec8bf,MgNbVF12,"['F', 'Mg', 'V', 'Nb']",15,226.9414,2.8985,1,P1,1,triclinic,-92.4941,-3.2514,-0.02,intercalated ion,3.2827,True,0.0,,-0.02,-0.0199
243477,F28Pd4Tb3Y1,a1de21b41e,Tb3YPd4F28,"['F', 'Y', 'Pd', 'Tb']",36,522.0231,4.8456,1,P1,1,triclinic,-197.6409,-2.862,-0.048,3D,1.7345,True,0.0,,-0.048,-0.048
244275,As2F20N1P1,a263ac00eb,As2PNF20,"['N', 'F', 'P', 'As']",24,355.424,2.6854,-4,P-4,81,tetragonal,-112.5237,-2.1344,-0.1666,0D,3.2567,True,0.0,,-0.1666,-0.0753
244343,Al12Ca1F4O24Sr7,a26f423c15,Sr7CaAl12(O6F)4,"['O', 'F', 'Al', 'Ca', 'Sr']",48,674.5481,3.5379,1,P1,1,triclinic,-355.9205,-3.5572,-0.0002,intercalated ion,,True,0.0,,-0.0002,-0.0002
244401,Ce2F22In1Zr3,a279d677d4,Ce2Zr3InF22,"['F', 'Zr', 'In', 'Ce']",28,439.6552,4.1043,m,Cm,8,monoclinic,-192.057,-3.9194,-0.0116,3D,0.0938,True,-0.0,,-0.0116,-0.0115
244434,As1F5H2,a28001c111,AsH2F5,"['H', 'F', 'As']",8,105.1182,2.7159,1,P1,1,triclinic,-37.9436,-2.1177,-0.0316,0D,5.6574,False,0.0,,-0.0316,-0.0195
244501,Al8F18K1O16P4Rb5,a28c4e16b3,KRb5Al8P4(O8F9)2,"['O', 'F', 'Al', 'P', 'K', 'Rb']",52,679.4195,3.4318,m,Pm,6,monoclinic,-346.8342,-3.3775,-0.0177,intercalated ion,,True,0.0,,-0.0177,-0.0146
244538,F24Ir1Pd1Rh2,a29267ab6a,IrPdRh2F24,"['F', 'Rh', 'Pd', 'Ir']",28,450.1265,3.543,m,Pm,6,monoclinic,-118.495,-1.5669,-0.0381,0D,0.0001,True,0.0,,-0.0381,-0.0033
244783,F16K6Np2,a2bf65f748,K3NpF8,"['F', 'K', 'Np']",24,419.5414,4.0077,6mm,P6_3mc,186,hexagonal,-144.3711,-3.3846,-0.0901,intercalated ion,0.381,True,0.0,,-0.0901,-0.023
245495,F24Na4Rb4Ru4,a33cb8da3f,RbNaRuF6,"['F', 'Na', 'Rb', 'Ru']",36,622.9427,3.4495,mm2,Pna2_1,33,orthorhombic,-185.2736,-2.5858,-0.05,intercalated ion,0.0008,False,0.0,,-0.05,-0.04
246307,F28Rh4Tm1Y3,a3c78eec77,Y3TmRh4F28,"['F', 'Y', 'Rh', 'Tm']",36,517.452,4.426,1,P1,1,triclinic,-214.1183,-2.9796,-0.0769,3D,0.0006,True,0.0,,-0.0769,-0.0321
246425,F20K8Np3Tm1,a3d9b6b39f,K8TmNp3F20,"['F', 'K', 'Tm', 'Np']",32,565.8544,4.6152,m,Pm,6,monoclinic,-202.8798,-3.514,-0.0377,intercalated ion,0.0045,True,0.0,,-0.0377,-0.0215
246574,F20Mo4Sr2,a3f373f0d3,SrMo2F10,"['F', 'Sr', 'Mo']",26,492.638,3.165,m,Pc,7,monoclinic,-165.2509,-3.0869,-0.0416,intercalated ion,,False,0.0,,-0.0416,-0.041
246786,Br1F34Te1,a41555f94d,TeBrF34,"['F', 'Br', 'Te']",36,692.4133,2.0467,1,P1,1,triclinic,-104.8095,-0.9733,-0.2874,0D,,True,0.0,,-0.2874,-0.2873
247011,Ag1Cs2F21V6,a440875215,Cs2V6AgF21,"['F', 'V', 'Ag', 'Cs']",30,504.449,3.5495,2,C2,5,monoclinic,-192.5081,-3.108,-0.0105,intercalated ion,,True,0.0,,-0.0105,-0.0091
247055,F28Rh4Tb3Y1,a447df8fa8,Tb3YRh4F28,"['F', 'Y', 'Rh', 'Tb']",36,523.7066,4.7855,1,P1,1,triclinic,-210.9149,-2.988,-0.0381,3D,0.0007,True,0.0,,-0.0381,-0.0353
247219,F28Os1V3Y4,a462668593,Y4V3OsF28,"['F', 'V', 'Y', 'Os']",36,523.0961,3.9066,1,P1,1,triclinic,-245.1017,-3.5343,-0.0291,3D,0.0456,True,0.0,,-0.0291,-0.0258
248099,Br2F11Os2,a4f48da210,Os2Br2F11,"['F', 'Br', 'Os']",15,297.3632,4.184,2,C2,5,monoclinic,-74.6984,-1.8629,-0.0574,0D,,True,-0.0,,-0.0574,-0.057
248467,F28Pb1Pd3Tm4,a531c109de,Tm4Pd3PbF28,"['F', 'Pd', 'Tm', 'Pb']",36,503.0186,5.7247,1,P1,1,triclinic,-197.2174,-2.9595,-0.1972,3D,,True,0.0,,-0.1972,-0.0296
248475,F36Os4Se4,a53401799e,OsSeF9,"['F', 'Se', 'Os']",44,704.5312,4.1499,3,R3,146,trigonal,-219.7552,-2.092,-0.0344,0D,,True,0.0,,-0.0344,-0.0341
248505,F28Tb1Tc4Tm3,a53a46e12c,TbTm3Tc4F28,"['F', 'Tc', 'Tb', 'Tm']",36,519.4135,5.0821,1,P1,1,triclinic,-234.4416,-3.3727,-0.2104,3D,1.6101,True,0.0,,-0.2104,-0.0848
248875,F8Zn1,a578f3e278,ZnF8,"['F', 'Zn']",9,127.2467,2.837,1,P1,1,triclinic,-26.3114,-1.0844,-0.2168,intercalated molecule,2.0383,True,0.0,,-0.2168,-0.0907
248952,Ag1C1F34,a584ebba55,AgCF34,"['C', 'F', 'Ag']",36,657.4249,1.9343,1,P1,1,triclinic,-104.3578,-0.7586,-0.309,0D,,True,-0.0,,-0.309,-0.309