Unnamed: 0,Composition,MaterialId,Reduced Formula,Elements,NSites,Volume,Density,Point Group,Space Group,Space Group Number,Crystal System,Corrected Energy,Formation Energy Per Atom,Decomposition Energy Per Atom,Dimensionality Cheon,Bandgap,Is Train,Decomposition Energy Per Atom All,Decomposition Energy Per Atom Relative,Decomposition Energy Per Atom MP,Decomposition Energy Per Atom MP OQMD
2242,Ag2I4O24Sm6,018278c4b7,Sm3Ag(IO6)2,"['O', 'Ag', 'I', 'Sm']",36,478.7908,6.9693,2,P2,3,monoclinic,-233.0861,-2.0628,-0.0487,3D,,True,0.0,,-0.0487,-0.0191
4878,Eu4F1I2O3,033cbad35a,Eu4I2O3F,"['O', 'F', 'I', 'Eu']",10,238.7225,6.4597,222,C222,21,orthorhombic,-91.6606,-3.0689,-0.1453,3D,0.0012,True,0.0,,-0.1453,-0.0562
5186,I2Nb2O24Pr8,0372bbe5ad,Pr4NbIO12,"['O', 'Nb', 'I', 'Pr']",36,500.0006,6.479,m,Pc,7,monoclinic,-287.2461,-2.9721,-0.0642,3D,,True,0.0,,-0.0642,-0.0592
6695,I2O8P2Sn4,047b809e80,Sn2PIO4,"['O', 'P', 'Sn', 'I']",16,343.7053,4.438,mm2,Ama2,40,orthorhombic,-101.7208,-2.014,-0.0078,intercalated ion,2.0253,True,0.0,,-0.0078,-0.0014
9170,Cu2I2O12Tm2,0629014459,TmCuIO6,"['O', 'Cu', 'I', 'Tm']",18,221.2773,6.8347,m,Cc,9,monoclinic,-110.9659,-1.744,-0.0266,3D,,True,0.0,,-0.0266,-0.0253
9947,Ca1I1Lu5O12,06b0f096d3,CaLu5IO12,"['O', 'Ca', 'I', 'Lu']",19,249.5459,8.2101,1,P1,1,triclinic,-148.7604,-3.329,-0.048,intercalated ion,,True,0.0,,-0.048,-0.0475
11140,Ba1Ho1I1O6,07834974d5,BaHoIO6,"['O', 'I', 'Ba', 'Ho']",9,156.7063,5.5648,32,P312,149,trigonal,-59.1678,-2.3838,-0.0763,intercalated ion,2.1725,False,0.0,,-0.0763,-0.0751
11499,Ba1I1In1O6,07bfc1ff1e,BaInIO6,"['O', 'In', 'I', 'Ba']",9,151.2274,5.2162,32,P312,149,trigonal,-52.3736,-1.8323,-0.0905,intercalated ion,2.1425,True,0.0,,-0.0905,-0.0893
12542,Cd3Ce1I2O12,086be4b5cd,CeCd3(IO6)2,"['O', 'Cd', 'I', 'Ce']",18,253.5452,6.046,mm2,Cmm2,35,orthorhombic,-98.4584,-1.5185,-0.0463,3D,0.7827,True,0.0,,-0.0463,-0.0448
13641,I2Nb2O26Se8,091f05f6f7,NbSe4IO13,"['O', 'Se', 'Nb', 'I']",38,631.2657,3.9123,m,Pc,7,monoclinic,-234.5855,-1.44,-0.0026,3D,2.0988,True,0.0,,-0.0026,-0.0026
13786,Eu1Ga1I1O6,0937bd1dde,EuGaIO6,"['O', 'Ga', 'I', 'Eu']",9,124.3689,5.936,32,P312,149,trigonal,-62.0409,-1.9454,-0.0585,3D,0.0113,True,0.0,,-0.0585,-0.0451
16565,I2O24Sb2Sm8,0b137f082b,Sm4SbIO12,"['O', 'Sb', 'I', 'Sm']",36,500.7778,6.911,m,Pc,7,monoclinic,-268.2939,-2.7913,-0.03,3D,1.4043,True,0.0,,-0.03,-0.0148
18242,Cu1I1O6Sr1,0c34414243,SrCuIO6,"['O', 'Cu', 'Sr', 'I']",9,126.3037,4.9179,32,P312,149,trigonal,-50.5846,-1.5094,-0.0797,intercalated ion,0.3485,True,-0.0,,-0.0797,-0.0776
19739,Br1I3Nb2O2,0d392955a3,Nb2I3BrO2,"['O', 'Br', 'Nb', 'I']",8,232.3084,4.8494,1,P1,1,triclinic,-50.0114,-1.713,-0.0459,2D,0.8324,False,0.0,,-0.0459,-0.0019
21005,Cu1I1O6Y1,0e048a2d51,YCuIO6,"['O', 'Cu', 'Y', 'I']",9,115.0384,5.4181,32,P312,149,trigonal,-57.3056,-1.7254,-0.0234,3D,,True,0.0,,-0.0234,-0.0223
21186,I1Li1O6Pd1,0e23874e6c,LiPdIO6,"['Li', 'O', 'Pd', 'I']",9,114.1126,4.8932,32,P312,149,trigonal,-48.0251,-1.0802,-0.0675,intercalated ion,,True,0.0,,-0.0675,-0.0384
21752,I2O24Pr8W2,0e80d4f5ef,Pr4WIO12,"['O', 'I', 'Pr', 'W']",36,537.2327,6.5921,2,P2_1,4,monoclinic,-288.9741,-2.8614,-0.0481,3D,,True,0.0,,-0.0481,-0.0456
22045,Ge1I1Na1O6,0eb28f79c6,NaGeIO6,"['O', 'Na', 'Ge', 'I']",9,118.9705,4.4459,32,P312,149,trigonal,-50.4971,-1.4822,-0.0546,intercalated ion,2.3571,True,0.0,,-0.0546,-0.053
22298,Al1I1O6Pb1,0ed9525abb,AlPbIO6,"['O', 'Al', 'I', 'Pb']",9,123.0711,6.1672,32,P312,149,trigonal,-54.5884,-1.7687,-0.0735,3D,,True,0.0,,-0.0735,-0.0732
22452,I1K5O5,0ef062595d,K5IO5,"['O', 'K', 'I']",11,211.0098,3.1666,2,C2,5,monoclinic,-47.68,-1.4422,-0.0095,intercalated ion,,True,0.0,,-0.0095,-0.0053
28017,Ca1Ga1I1O6,12a4e762d3,CaGaIO6,"['O', 'Ca', 'Ga', 'I']",9,117.7827,4.6905,32,P312,149,trigonal,-53.5304,-1.9205,-0.0943,intercalated ion,2.3944,True,0.0,,-0.0943,-0.0931
28735,Al1Gd8I3O24,13251a14ea,Gd8Al(IO8)3,"['O', 'Al', 'I', 'Gd']",36,479.3288,7.1007,1,P1,1,triclinic,-338.1227,-2.7301,-0.0643,3D,,True,0.0,,-0.0643,-0.056
30368,Ba10I2O30Tc6,1445320c16,Ba5Tc3IO15,"['O', 'Tc', 'I', 'Ba']",48,841.7341,5.3167,6mm,P6_3cm,185,hexagonal,-354.6751,-2.5382,-0.1896,intercalated ion,,True,0.0,,-0.1896,-0.184
31944,Cd1I1O6Sc1,1556c222db,ScCdIO6,"['O', 'Sc', 'Cd', 'I']",9,120.9399,5.2212,32,P312,149,trigonal,-55.0565,-1.8433,-0.0751,3D,1.3738,True,0.0,,-0.0751,-0.0694
32257,I3O24Sb1Y8,158b92e7df,Y8Sb(IO8)3,"['O', 'Y', 'Sb', 'I']",36,482.6124,5.4973,1,P1,1,triclinic,-277.727,-2.7373,-0.0587,3D,,True,0.0,,-0.0587,-0.058
33820,Cd3I2O12Sn1,1693585820,Cd3Sn(IO6)2,"['O', 'Cd', 'Sn', 'I']",18,241.5634,6.1987,mm2,Cmm2,35,orthorhombic,-90.76,-1.1977,-0.0156,3D,0.0498,True,0.0,,-0.0156,-0.0141
33880,Ac1I1O2Pb1,169c5dd99e,AcPbIO2,"['O', 'I', 'Pb', 'Ac']",5,129.5839,7.6003,4mm,I4mm,107,tetragonal,-31.7026,-2.4898,-0.0504,intercalated ion,2.7156,True,0.0,,-0.0504,-0.0164
36181,I4O24Pr3Sr5,181af48588,Sr5Pr3(IO6)4,"['O', 'Sr', 'I', 'Pr']",36,511.0462,5.6941,1,P1,1,triclinic,-228.5682,-2.2481,-0.0467,intercalated ion,,True,-0.0,,-0.0467,-0.0424
37352,Ca1I1O6Rh1,18e7f40788,CaRhIO6,"['O', 'Ca', 'Rh', 'I']",9,120.5257,5.041,32,P312,149,trigonal,-55.1926,-1.6234,-0.0211,intercalated ion,,True,0.0,,-0.0211,-0.0207
37840,I4Lu3O24Y5,1938e03b31,Y5Lu3(IO6)4,"['O', 'Y', 'I', 'Lu']",36,470.5609,6.5673,1,P1,1,triclinic,-266.0084,-2.6463,-0.0619,3D,,True,0.0,,-0.0619,-0.0611
38309,I3O24Tm1Y8,1989aec680,Y8Tm(IO8)3,"['O', 'Y', 'I', 'Tm']",36,483.5864,5.6482,1,P1,1,triclinic,-280.9753,-2.8179,-0.0677,3D,,True,0.0,,-0.0677,-0.0665
38332,I1O8Tb3,198d9db402,Tb3IO8,"['O', 'I', 'Tb']",12,154.3569,7.8712,3m,R3m,160,trigonal,-88.7044,-2.8078,-0.0562,3D,,True,0.0,,-0.0562,-0.055
39302,I1O6Sc1Sr1,1a3dc5775f,SrScIO6,"['O', 'Sc', 'Sr', 'I']",9,135.4531,4.3578,32,P312,149,trigonal,-60.7751,-2.3935,-0.0929,intercalated ion,2.3191,False,0.0,,-0.0929,-0.0908
39305,Ga1I1O6Pb1,1a3e76164e,GaPbIO6,"['O', 'Ga', 'I', 'Pb']",9,129.769,6.3958,32,P312,149,trigonal,-50.9332,-1.4423,-0.0691,3D,1.787,True,0.0,,-0.0691,-0.0684
42113,I1O6Sr1Y1,1c17d6a67c,SrYIO6,"['O', 'Sr', 'Y', 'I']",9,144.2418,4.5983,32,P312,149,trigonal,-60.6418,-2.3638,-0.0606,intercalated ion,2.176,True,0.0,,-0.0606,-0.0589
44152,I2Ir2O24Pr8,1d73d6870c,Pr4IrIO12,"['O', 'I', 'Pr', 'Ir']",36,537.2327,6.6439,2,P2_1,4,monoclinic,-271.7943,-2.6131,-0.0942,3D,,True,0.0,,-0.0942,-0.092
45491,I3O24Sm8Y1,1e61b425e6,Sm8Y(IO8)3,"['O', 'Y', 'I', 'Sm']",36,508.4724,6.7159,1,P1,1,triclinic,-267.0359,-2.7638,-0.0782,3D,,True,0.0,,-0.0782,-0.0554
46978,I1O8Y3,1f57bc6d5c,Y3IO8,"['O', 'Y', 'I']",12,159.5108,5.4301,3m,R3m,160,trigonal,-94.1568,-2.8041,-0.0624,3D,1.5221,False,0.0,,-0.0624,-0.0612
47577,I3Nb1O24Tm8,1fbbc44741,Tm8Nb(IO8)3,"['O', 'Nb', 'I', 'Tm']",36,471.2825,7.7836,1,P1,1,triclinic,-273.9212,-2.9081,-0.0714,3D,,True,0.0,,-0.0714,-0.0706
49091,Cs2I2O16S4,20b6278eaf,CsS2IO8,"['O', 'S', 'I', 'Cs']",24,486.0017,3.0883,2,C2,5,monoclinic,-141.0717,-1.6883,-0.0605,intercalated ion,2.8925,True,-0.0,,-0.0605,-0.0389
50901,I1O6Sm1Zn1,21e1055805,SmZnIO6,"['O', 'Zn', 'I', 'Sm']",9,120.2539,6.0574,32,P312,149,trigonal,-54.7704,-1.9534,-0.1303,3D,2.1477,True,-0.0,,-0.1303,-0.1
51247,I2O12Ti1Zn3,221c946e3f,TiZn3(IO6)2,"['O', 'Ti', 'Zn', 'I']",18,207.1104,5.5313,mm2,Cmm2,35,orthorhombic,-101.687,-1.5327,-0.0211,3D,,True,0.0,,-0.0211,-0.0195
52870,Cd1I4O24Sm7,2333c1b662,Sm7Cd(IO6)4,"['O', 'Cd', 'I', 'Sm']",36,509.4829,6.7028,1,P1,1,triclinic,-244.8715,-2.3909,-0.0803,3D,0.0105,True,0.0,,-0.0803,-0.0556
60418,Ca1I4O24Tb7,28420b2aa6,CaTb7(IO6)4,"['O', 'Ca', 'I', 'Tb']",36,477.1261,7.1143,2,P2,3,monoclinic,-251.4652,-2.5603,-0.0608,intercalated ion,,True,0.0,,-0.0608,-0.06
60790,I1O12Tb1Y5,287d5e6bbb,TbY5IO12,"['O', 'Y', 'I', 'Tb']",19,269.2381,5.6887,1,P1,1,triclinic,-161.5416,-3.3513,-0.0491,3D,,True,0.0,,-0.0491,-0.0487
62358,I6K2O26V4,29873de92b,KV2I3O13,"['O', 'K', 'V', 'I']",38,598.4276,4.0495,mm2,Ima2,46,orthorhombic,-233.2496,-1.4974,-0.0059,intercalated ion,1.8241,True,0.0,,-0.0059,-0.0024
62768,I8O24Th1Zr1,29ceb927ec,ThZr(IO3)8,"['O', 'Zr', 'I', 'Th']",34,594.04,4.8149,4,P4,75,tetragonal,-194.0616,-1.387,-0.0244,3D,3.3739,False,-0.0,,-0.0244,-0.0244
65836,Gd8I2O24Ru2,2bf01e8bfd,Gd4RuIO12,"['O', 'Ru', 'I', 'Gd']",36,497.0027,7.0094,2,P2_1,4,monoclinic,-351.027,-2.7197,-0.0693,3D,,True,0.0,,-0.0693,-0.0613
66163,I3Np3O24Pm4,2c2c653c04,Pm4Np3(IO8)3,"['O', 'I', 'Pm', 'Np']",34,539.1348,6.3316,1,P1,1,triclinic,-269.8052,-2.607,-0.1669,3D,0.8702,False,0.0,,-0.1669,-0.1656
66414,I4O16Sm1Y3,2c586c6c57,SmY3(IO4)4,"['O', 'Y', 'I', 'Sm']",24,352.4274,5.5631,1,P1,1,triclinic,-162.0621,-2.195,-0.0258,2D,2.6342,True,0.0,,-0.0258,-0.0194
70196,Ba1I1O6Tb1,2ed02ee990,BaTbIO6,"['O', 'I', 'Ba', 'Tb']",9,158.3504,5.4441,32,P312,149,trigonal,-59.0562,-2.3657,-0.072,intercalated ion,2.152,True,0.0,,-0.072,-0.0709
70589,Hf1I3O24Sm8,2f1594d2d6,Sm8Hf(IO8)3,"['O', 'I', 'Sm', 'Hf']",36,507.0076,7.0288,1,P1,1,triclinic,-272.9618,-2.8315,-0.079,3D,0.0138,True,0.0,,-0.079,-0.0564
74858,I4O24Pr6Sm2,31e26a42bf,Pr3Sm(IO6)2,"['O', 'I', 'Pr', 'Sm']",36,524.4385,6.4522,1,P1,1,triclinic,-254.3855,-2.5393,-0.0809,3D,,True,0.0,,-0.0809,-0.0682
75954,Hf1I3O24Y8,32a1b19db9,Y8Hf(IO8)3,"['O', 'Y', 'I', 'Hf']",36,483.0323,5.6875,1,P1,1,triclinic,-288.648,-2.8788,-0.0778,3D,0.0301,True,0.0,,-0.0778,-0.0764
77392,Ba1Ga1I1O6,339c9fc61c,BaGaIO6,"['O', 'Ga', 'I', 'Ba']",9,139.4072,5.1213,32,P312,149,trigonal,-53.4103,-1.9168,-0.0995,intercalated ion,2.3567,False,0.0,,-0.0995,-0.0983
79795,I2Np2O12,3537405fc4,NpIO6,"['O', 'I', 'Np']",16,268.2656,5.6935,2,P2_1,4,monoclinic,-120.3536,-2.0022,-0.144,2D,1.3974,False,0.0,,-0.144,-0.1423
79974,Al1Ba1I1O6,35584c8bb6,BaAlIO6,"['O', 'Al', 'I', 'Ba']",9,134.5247,4.7796,32,P312,149,trigonal,-57.0734,-2.2441,-0.1052,intercalated ion,2.5844,True,0.0,,-0.1052,-0.104
81157,Cd1I1O12Sm5,362d8c899b,Sm5CdIO12,"['O', 'Cd', 'I', 'Sm']",19,271.6748,7.2314,1,P1,1,triclinic,-141.0894,-2.9302,-0.0738,3D,,True,0.0,,-0.0738,-0.0642
86696,Ge1I3O24Sm8,39d7a301db,Sm8Ge(IO8)3,"['O', 'Ge', 'I', 'Sm']",36,506.3116,6.6913,1,P1,1,triclinic,-261.6301,-2.6649,-0.0646,3D,0.0422,True,0.0,,-0.0646,-0.0413
87535,Cl1I3Nb2O2,3a65500650,Nb2I3ClO2,"['O', 'Cl', 'Nb', 'I']",8,229.5374,4.5864,1,P1,1,triclinic,-50.7348,-1.777,-0.0415,2D,0.8362,False,0.0,,-0.0415,-0.0011
87585,I1Ir3O24Y8,3a6cf4c3d0,Y8Ir3IO24,"['O', 'Y', 'I', 'Ir']",36,484.4985,6.1651,1,P1,1,triclinic,-296.1446,-2.7117,-0.0912,3D,0.0027,True,0.0,,-0.0912,-0.0665
91636,Br3Cd2I1O12,3d1e66262f,Cd2I(BrO4)3,"['O', 'Br', 'Cd', 'I']",18,292.1575,4.4528,1,P1,1,triclinic,-80.227,-0.6984,-0.1308,3D,,True,0.0,,-0.1308,-0.1246
92313,Ca3I2O4Te1,3d9aa206ba,Ca3Te(IO2)2,"['O', 'Ca', 'Te', 'I']",10,215.402,4.3605,mm2,Amm2,38,orthorhombic,-56.7839,-2.4784,-0.0349,intercalated ion,2.7943,True,0.0,,-0.0349,-0.0349
94892,I3O24Rh1Sm8,3f52b32853,Sm8Rh(IO8)3,"['O', 'Rh', 'I', 'Sm']",36,506.3024,6.7906,1,P1,1,triclinic,-261.1151,-2.5744,-0.0629,3D,0.006,True,0.0,,-0.0629,-0.0403
96297,Bi4I2N2O16,40430e0d62,Bi2INO8,"['N', 'O', 'I', 'Bi']",24,363.7233,6.2716,2,P2_1,4,monoclinic,-143.2196,-1.1988,-0.0367,2D,2.4974,True,0.0,,-0.0367,-0.0367
97552,I2K2O12Ti2,411181168d,KTiIO6,"['O', 'K', 'Ti', 'I']",18,288.4802,3.5673,32,P312,149,trigonal,-116.2273,-1.9884,-0.0405,intercalated ion,1.8507,True,0.0,,-0.0405,-0.0001
98508,I2Nb2O24Sc8,41aeb783d9,Sc4NbIO12,"['O', 'Sc', 'Nb', 'I']",36,407.508,4.8216,m,Pc,7,monoclinic,-299.9828,-2.9812,-0.0101,3D,,False,0.0,,-0.0101,-0.007
99357,I1O6Rb1V1,423cdff6db,RbVIO6,"['O', 'V', 'Rb', 'I']",9,152.6889,3.9076,32,P312,149,trigonal,-56.3491,-1.6748,-0.0018,intercalated ion,1.2374,True,0.0,,-0.0018,-0.0006
102067,I3O24Pr8Tm1,4412196c73,Pr8Tm(IO8)3,"['O', 'I', 'Pr', 'Tm']",36,546.9141,6.2573,1,P1,1,triclinic,-265.8903,-2.7734,-0.1397,3D,,True,0.0,,-0.1397,-0.1323
102377,I3O24Sm8Ta1,44464f2b3f,Sm8Ta(IO8)3,"['O', 'I', 'Sm', 'Ta']",36,507.4467,7.0307,1,P1,1,triclinic,-275.1898,-2.8406,-0.0761,3D,1.493,True,0.0,,-0.0761,-0.0538
103692,Cs1I1O7P2,4528b1c67e,CsP2IO7,"['O', 'P', 'I', 'Cs']",11,237.9131,3.0274,2,C2,5,monoclinic,-71.9046,-2.1839,-0.0411,intercalated ion,2.8721,False,-0.0,,-0.0411,-0.0411
104017,Ca2Gd6I4O24,455df262ee,CaGd3(IO6)2,"['O', 'Ca', 'I', 'Gd']",36,481.5183,6.6049,2,P2,3,monoclinic,-301.6138,-2.4494,-0.0518,intercalated ion,,True,0.0,,-0.0518,-0.0452
106262,I2O24Sm8Ta2,46dfb02143,Sm4TaIO12,"['O', 'I', 'Sm', 'Ta']",36,497.5508,7.3509,m,Pc,7,monoclinic,-294.4813,-3.0894,-0.0584,3D,1.4692,True,0.0,,-0.0584,-0.0432
112050,I4La1O16Y3,4aabe1e768,LaY3(IO4)4,"['O', 'Y', 'I', 'La']",24,352.4274,5.5091,1,P1,1,triclinic,-162.447,-2.202,-0.021,2D,,True,0.0,,-0.021,-0.021
114870,I4La1O16Pr3,4c8454dde0,LaPr3(IO4)4,"['O', 'I', 'La', 'Pr']",24,369.7515,5.9516,1,P1,1,triclinic,-156.7346,-2.1747,-0.0555,2D,,True,0.0,,-0.0555,-0.0555
115218,Ac3I1O8,4cbd32e7b0,Ac3IO8,"['O', 'I', 'Ac']",12,179.3427,8.6655,3m,R3m,160,trigonal,-86.2885,-2.7348,-0.1775,3D,,True,0.0,,-0.1775,-0.1763
115825,Br3I1Mg2O12,4d26bdb106,Mg2I(BrO4)3,"['O', 'Mg', 'Br', 'I']",18,282.0056,3.5755,1,P1,1,triclinic,-88.2627,-1.0695,-0.014,3D,3.9973,True,-0.0,,-0.014,-0.014
116143,Cd1Ga1I1O6,4d5b295cca,CdGaIO6,"['O', 'Ga', 'Cd', 'I']",9,113.8629,5.9069,32,P312,149,trigonal,-47.6999,-1.393,-0.0872,3D,1.2437,False,0.0,,-0.0872,-0.0856
117225,Bi2I4O16Tb2,4e11a16ccc,TbBi(IO4)2,"['O', 'I', 'Tb', 'Bi']",24,344.5138,7.2271,2,P2_1,4,monoclinic,-143.6495,-1.7224,-0.0127,2D,,True,0.0,,-0.0127,-0.0127
117601,Br3Hg2I1O12,4e4ea7af32,Hg2I(BrO4)3,"['O', 'Br', 'I', 'Hg']",18,306.6116,5.198,1,P1,1,triclinic,-75.1042,-0.4826,-0.0733,2D,2.8009,True,0.0,,-0.0733,-0.0662
119287,Eu1I1O6Sc1,4f6a817556,EuScIO6,"['O', 'Sc', 'I', 'Eu']",9,131.097,5.3177,32,P312,149,trigonal,-69.4935,-2.4064,-0.079,3D,0.0006,True,0.0,,-0.079,-0.0468
119619,Al1I1O6Sr1,4f9e3f756c,SrAlIO6,"['O', 'Al', 'Sr', 'I']",9,123.0711,4.5538,32,P312,149,trigonal,-57.0273,-2.2645,-0.1145,intercalated ion,,True,0.0,,-0.1145,-0.1124
119781,Bi2I4O16Sm2,4fba648700,SmBi(IO4)2,"['O', 'I', 'Sm', 'Bi']",24,365.3735,6.7367,2,P2_1,4,monoclinic,-143.6558,-1.7156,-0.0288,2D,2.6455,False,0.0,,-0.0288,-0.0071
119817,Ag1I1O12Y5,4fc0af8275,Y5AgIO12,"['O', 'Y', 'Ag', 'I']",19,267.8795,5.401,1,P1,1,triclinic,-150.9201,-2.8871,-0.0604,3D,0.2359,True,0.0,,-0.0604,-0.0599
122205,I3O24Sb1Sm8,515eac63f4,Sm8Sb(IO8)3,"['O', 'Sb', 'I', 'Sm']",36,508.7357,6.8197,1,P1,1,triclinic,-262.0733,-2.6909,-0.0613,3D,1.3518,True,0.0,,-0.0613,-0.0389
125302,Ag1Eu1I1O6,5368c1a5e0,EuAgIO6,"['O', 'Ag', 'I', 'Eu']",9,132.0767,6.0692,32,P312,149,trigonal,-57.078,-1.4157,-0.0856,3D,0.0099,True,-0.0,,-0.0856,-0.0532
127591,I4Li1O24Tb7,54f1ae6e7a,LiTb7(IO6)4,"['Li', 'O', 'I', 'Tb']",36,475.9216,7.0167,1,P1,1,triclinic,-248.3875,-2.4774,-0.0821,intercalated ion,,True,-0.0,,-0.0821,-0.081
131325,Hg3I4O24Y5,5767b3aa12,Y5Hg3(IO6)4,"['O', 'Y', 'I', 'Hg']",36,491.9276,6.5415,1,P1,1,triclinic,-225.7064,-1.8782,-0.0467,3D,0.0567,False,0.0,,-0.0467,-0.0453
132920,Ga1I1O6Zn1,5874b49724,ZnGaIO6,"['O', 'Zn', 'Ga', 'I']",9,103.1157,5.7656,32,P312,149,trigonal,-47.9486,-1.3832,-0.0075,3D,1.1256,False,0.0,,-0.0075,-0.0059
135047,Cd1I1Lu1O6,59e1034db4,LuCdIO6,"['O', 'Cd', 'I', 'Lu']",9,124.5208,6.8048,32,P312,149,trigonal,-53.3551,-1.8555,-0.0441,3D,,True,0.0,,-0.0441,-0.0426
135460,I1O16Re1Tb6,5a233705a7,Tb6ReIO16,"['O', 'I', 'Tb', 'Re']",24,308.2028,8.2038,mm2,Amm2,38,orthorhombic,-194.8341,-3.0788,-0.0778,3D,,True,0.0,,-0.0778,-0.0773
135480,Gd7I4O24Sr1,5a2728cb6e,SrGd7(IO6)4,"['O', 'Sr', 'I', 'Gd']",36,477.1261,7.2389,2,P2,3,monoclinic,-315.2585,-2.5013,-0.0488,intercalated ion,,True,0.0,,-0.0488,-0.041
135777,Eu1I2O8Sb5,5a5d041e11,EuSb5(IO4)2,"['O', 'Sb', 'I', 'Eu']",16,321.7643,5.8965,2,P2,3,monoclinic,-103.3511,-1.8614,-0.045,intercalated ion,,True,0.0,,-0.045,-0.0231
137661,I1O8Sm3,5b9a5fd316,Sm3IO8,"['O', 'I', 'Sm']",12,166.5375,7.0393,3m,R3m,160,trigonal,-88.2307,-2.7473,-0.0692,3D,1.4688,False,-0.0,,-0.0692,-0.0464
140142,Ag1Cu1I1O6,5d4e4d3081,CuAgIO6,"['O', 'Cu', 'Ag', 'I']",9,112.7834,5.8056,32,P312,149,trigonal,-44.3706,-0.6919,-0.041,3D,0.0058,False,0.0,,-0.041,-0.0094
141688,Cd3I2O12Pb1,5e55085038,Cd3Pb(IO6)2,"['O', 'Cd', 'I', 'Pb']",18,249.6544,6.5864,mm2,Cmm2,35,orthorhombic,-88.3936,-1.0827,-0.0315,3D,0.0393,True,0.0,,-0.0315,-0.03
141732,Br2I2O12Pb2,5e5beb3e18,PbIBrO6,"['O', 'Br', 'I', 'Pb']",18,328.0658,5.1629,m,Cc,9,monoclinic,-88.5257,-0.8557,-0.0016,1D,3.4314,True,0.0,,-0.0016,-0.0008
144886,I1In1O6Pb1,606de7b520,InPbIO6,"['O', 'In', 'I', 'Pb']",9,139.7891,6.473,32,P312,149,trigonal,-49.8731,-1.3552,-0.0509,3D,1.559,True,0.0,,-0.0509,-0.0509
147363,Gd1I3O24Y8,62129775cc,GdY8(IO8)3,"['O', 'Y', 'I', 'Gd']",36,483.0323,5.6145,1,P1,1,triclinic,-290.0754,-2.8034,-0.065,3D,,True,0.0,,-0.065,-0.0628
148300,Ce2I2N1O1,62b72946ca,Ce2I2NO,"['N', 'O', 'I', 'Ce']",6,161.2307,5.8092,-42m,P-4m2,115,tetragonal,-42.6498,-2.4085,-0.1954,2D,0.0003,True,0.0,,-0.1954,-0.0133
148433,I8O22Rb4,62ce3edf15,Rb2I4O11,"['O', 'Rb', 'I']",34,643.6368,4.4093,6,P6_3,173,hexagonal,-163.5548,-1.1349,-0.0154,intercalated ion,2.8557,False,-0.0,,-0.0154,-0.0154
149265,Ba10I4Nb2O18Sb2,635bd66df0,Ba5NbSbI2O9,"['O', 'Nb', 'Sb', 'I', 'Ba']",36,868.4165,4.9682,6mm,P6_3mc,186,hexagonal,-244.88,-2.8353,-0.046,intercalated ion,3.4458,True,0.0,,-0.046,-0.0346
149699,Cd2I2O12Y2,63ac4a86d2,YCdIO6,"['O', 'Y', 'Cd', 'I']",18,252.1702,5.5869,-42m,P-42_1m,113,tetragonal,-110.8451,-1.869,-0.1002,3D,1.2263,False,0.0,,-0.1002,-0.0987
150712,Cd1I1O6Rh1,644d7de516,CdRhIO6,"['O', 'Rh', 'Cd', 'I']",9,117.1509,6.2114,32,P312,149,trigonal,-49.408,-1.101,-0.0288,3D,0.4505,False,0.0,,-0.0288,-0.013
151239,Ag1I1Lu5O12,64a4a08f40,Lu5AgIO12,"['O', 'Ag', 'I', 'Lu']",19,248.2867,8.7051,1,P1,1,triclinic,-142.7862,-2.971,-0.0481,3D,,True,0.0,,-0.0481,-0.0476
152510,I3O24Pm4Tc3,6588fad3e3,Pm4Tc3(IO8)3,"['O', 'Tc', 'I', 'Pm']",34,538.2611,5.0554,1,P1,1,triclinic,-246.2381,-2.1421,-0.0651,3D,,True,0.0,,-0.0651,-0.0651
152706,Bi1Cd3I2O12,65ad7f7219,Cd3Bi(IO6)2,"['O', 'Cd', 'I', 'Bi']",18,253.5418,6.4971,mm2,Cmm2,35,orthorhombic,-89.1437,-1.1145,-0.048,3D,0.0031,True,0.0,,-0.048,-0.0439
153268,I2O26P6U2,660b201ee6,UP3IO13,"['O', 'P', 'I', 'U']",36,584.9932,3.7801,1,P1,1,triclinic,-274.4231,-2.4352,-0.0435,3D,,True,0.0,,-0.0435,-0.0435
155327,I3O24Pb1Sm8,6768c59039,Sm8Pb(IO8)3,"['O', 'I', 'Sm', 'Pb']",36,508.4724,7.1023,1,P1,1,triclinic,-258.4515,-2.6019,-0.0836,3D,,False,0.0,,-0.0836,-0.0611
160773,Ag2I4O24Pr6,6af836acea,Pr3Ag(IO6)2,"['O', 'Ag', 'I', 'Pr']",36,515.6053,6.2891,2,P2,3,monoclinic,-232.8863,-2.0469,-0.0722,3D,,True,0.0,,-0.0722,-0.0664
160850,Cd1Cl1I1O2Sr2,6b04a21d8e,Sr2CdIClO2,"['O', 'Cl', 'Sr', 'Cd', 'I']",7,175.5964,4.5581,m,Cm,8,monoclinic,-33.9796,-2.3442,-0.0301,intercalated ion,2.9575,True,0.0,,-0.0301,-0.0057
161107,I1In1O6Sr1,6b34764b75,SrInIO6,"['O', 'Sr', 'In', 'I']",9,138.4594,5.1011,32,P312,149,trigonal,-52.1895,-1.8374,-0.0845,intercalated ion,2.0641,False,0.0,,-0.0845,-0.0824
161664,Cd2Gd2I2O12,6b8e0517ac,GdCdIO6,"['O', 'Cd', 'I', 'Gd']",18,259.256,6.3097,-42m,P-42_1m,113,tetragonal,-125.7523,-1.8494,-0.1039,3D,,True,0.0,,-0.1039,-0.0985
161781,Cd3I2O12Th1,6ba202203a,ThCd3(IO6)2,"['O', 'Cd', 'I', 'Th']",18,257.9771,6.5338,mm2,Cmm2,35,orthorhombic,-101.0569,-1.5806,-0.0352,3D,0.6103,True,0.0,,-0.0352,-0.0337
163746,I5O20Pa3,6cedf33be2,Pa3(IO4)5,"['O', 'I', 'Pa']",28,530.84,5.154,1,P1,1,triclinic,-191.5603,-2.0156,-0.2322,3D,2.5899,True,0.0,,-0.2322,-0.2322
163756,I2Mg3O12Sn1,6cf011715e,Mg3Sn(IO6)2,"['O', 'Mg', 'Sn', 'I']",18,207.1104,5.1107,mm2,Cmm2,35,orthorhombic,-103.4398,-1.8055,-0.0495,3D,,True,0.0,,-0.0495,-0.0479
163773,Ba10I4Nb2O18Ta2,6cf3ad8b3f,Ba5TaNbI2O9,"['O', 'Nb', 'I', 'Ba', 'Ta']",36,863.5735,5.2236,6mm,P6_3mc,186,hexagonal,-270.6272,-3.1211,-0.0354,intercalated ion,,True,0.0,,-0.0354,-0.0233
166656,Cu1I1Mg1O6,6ed3ac33c5,MgCuIO6,"['O', 'Mg', 'Cu', 'I']",9,104.5344,4.9363,32,P312,149,trigonal,-48.5366,-1.3026,-0.0081,3D,,True,0.0,,-0.0081,-0.0065
168527,Gd5Hg1I1O12,7025da7e39,Gd5HgIO12,"['O', 'I', 'Gd', 'Hg']",19,271.6748,7.981,1,P1,1,triclinic,-186.5353,-2.8868,-0.0893,3D,,True,0.0,,-0.0893,-0.0805