Unnamed: 0,Composition,MaterialId,Reduced Formula,Elements,NSites,Volume,Density,Point Group,Space Group,Space Group Number,Crystal System,Corrected Energy,Formation Energy Per Atom,Decomposition Energy Per Atom,Dimensionality Cheon,Bandgap,Is Train,Decomposition Energy Per Atom All,Decomposition Energy Per Atom Relative,Decomposition Energy Per Atom MP,Decomposition Energy Per Atom MP OQMD
383897,Cd5Mo6Na2O24,ff613797bd,Na2Cd5(MoO4)6,"['O', 'Na', 'Mo', 'Cd']",37,650.9392,3.9991,1,P1,1,triclinic,-261.9322,-1.9146,-0.0301,intercalated ion,3.5638,True,0.0,,-0.0301,-0.0126