Unnamed: 0,Composition,MaterialId,Reduced Formula,Elements,NSites,Volume,Density,Point Group,Space Group,Space Group Number,Crystal System,Corrected Energy,Formation Energy Per Atom,Decomposition Energy Per Atom,Dimensionality Cheon,Bandgap,Is Train,Decomposition Energy Per Atom All,Decomposition Energy Per Atom Relative,Decomposition Energy Per Atom MP,Decomposition Energy Per Atom MP OQMD
367289,I6O18Sb1Tl1,f42ef8de82,TlSb(IO3)6,"['O', 'Sb', 'I', 'Tl']",26,467.9593,4.8811,3,R3,146,trigonal,-129.568,-0.9565,-0.0152,intercalated ion,,True,0.0,,-0.0152,-0.0149
369368,I2O12Pb1Zn3,f5a3ec0b5a,Zn3Pb(IO6)2,"['O', 'Zn', 'I', 'Pb']",18,214.0475,6.5882,mm2,Cmm2,35,orthorhombic,-90.7964,-1.1601,-0.0164,3D,,True,0.0,,-0.0164,-0.0148
372406,I1O6Y1Zn1,f7aabefb5c,YZnIO6,"['O', 'Zn', 'Y', 'I']",9,116.0749,5.3964,32,P312,149,trigonal,-56.6315,-1.9659,-0.1186,3D,2.1319,True,0.0,,-0.1186,-0.117
373989,Cd5I4O24Sm3,f8b6443801,Sm3Cd5(IO6)4,"['O', 'Cd', 'I', 'Sm']",36,485.1893,6.5189,2,P2,3,monoclinic,-202.6088,-1.6387,-0.0925,3D,0.0055,True,-0.0,,-0.0925,-0.0768
374614,Ba1Cu1I1O6,f922afd142,BaCuIO6,"['O', 'Cu', 'I', 'Ba']",9,139.4053,5.0478,32,P312,149,trigonal,-50.6941,-1.496,-0.0775,intercalated ion,0.2553,True,0.0,,-0.0775,-0.0763
376215,Cl1I5O2Pa2,fa34d56884,Pa2I5ClO2,"['O', 'Cl', 'I', 'Pa']",10,369.5518,5.2305,m,Cm,8,monoclinic,-60.6513,-2.2257,-0.3652,1D,,True,0.0,,-0.3652,-0.3618
377202,I3O24Y8Zr1,fad7ad3634,Y8Zr(IO8)3,"['O', 'Y', 'Zr', 'I']",36,483.5863,5.3813,1,P1,1,triclinic,-286.6237,-2.8617,-0.0729,3D,0.0292,True,0.0,,-0.0729,-0.072
377910,I1O12Tl5Zn1,fb4ba8853f,Tl5ZnIO12,"['O', 'Zn', 'I', 'Tl']",19,262.4034,8.8988,1,P1,1,triclinic,-94.8706,-1.1002,-0.0288,3D,,True,-0.0,,-0.0288,-0.0281
380363,I2O4Pb3Te1,fcf96f865d,TePb3(IO2)2,"['O', 'Te', 'I', 'Pb']",10,234.6829,7.5498,mm2,Amm2,38,orthorhombic,-51.0152,-1.3894,-0.0434,intercalated ion,1.7361,True,0.0,,-0.0434,-0.0235
381077,I2N1O1U2,fd72c2e584,U2I2NO,"['N', 'O', 'I', 'U']",6,154.1915,8.1833,-42m,P-4m2,115,tetragonal,-50.8857,-1.9951,-0.0705,,0.0046,,0.0,,-0.0705,-0.0126