Unnamed: 0,Composition,MaterialId,Reduced Formula,Elements,NSites,Volume,Density,Point Group,Space Group,Space Group Number,Crystal System,Corrected Energy,Formation Energy Per Atom,Decomposition Energy Per Atom,Dimensionality Cheon,Bandgap,Is Train,Decomposition Energy Per Atom All,Decomposition Energy Per Atom Relative,Decomposition Energy Per Atom MP,Decomposition Energy Per Atom MP OQMD
365214,F28Ge4Tb1Y3,f2cf09a7c3,TbY3Ge4F28,"['F', 'Ge', 'Y', 'Tb']",36,494.8327,4.1885,1,P1,1,triclinic,-222.5211,-3.5247,-0.0463,3D,,True,0.0,,-0.0463,-0.0463
365389,F7Mo1Na1,f2eb897e7f,NaMoF7,"['F', 'Na', 'Mo']",9,148.0273,2.826,1,P1,1,triclinic,-49.5859,-2.6703,-0.0028,intercalated ion,,True,0.0,,-0.0028,-0.0014
365405,F30Hf2Tb1Y1Zr4,f2ef3d4ea4,TbYHf2Zr4F30,"['F', 'Y', 'Zr', 'Tb', 'Hf']",38,522.0447,4.8974,2,C2,5,monoclinic,-280.509,-4.1568,-0.0059,3D,5.7149,True,0.0,,-0.0059,-0.0048
365703,Ce6F30Tb1Zr1,f3233919b9,TbCe6ZrF30,"['F', 'Zr', 'Ce', 'Tb']",38,607.4653,4.5399,2,C2,5,monoclinic,-265.1278,-4.1843,-0.053,3D,,True,0.0,,-0.053,-0.0523
366023,F20Sb2V2,f355f8fdd7,VSbF10,"['F', 'V', 'Sb']",24,437.4585,2.7534,mm2,Cmc2_1,36,orthorhombic,-129.4047,-2.6979,-0.007,0D,2.8191,False,0.0,,-0.007,-0.0059
366251,Cu2F30,f37e28ee0e,CuF15,"['F', 'Cu']",32,605.7856,1.9107,mm2,Cmc2_1,36,orthorhombic,-87.3864,-0.6826,-0.3427,0D,,True,0.0,,-0.3427,-0.248
366407,F3La1S24,f39b41fa46,La(S8F)3,"['F', 'S', 'La']",28,864.9751,1.8534,m,Cm,8,monoclinic,-137.8212,-0.9956,-0.3538,0D,,True,0.0,,-0.3538,-0.3538
366505,Ba1F12W2,f3aa01802b,Ba(WF6)2,"['F', 'Ba', 'W']",15,269.735,4.5124,1,P1,1,triclinic,-97.2836,-3.1007,-0.0602,intercalated ion,2.8963,True,0.0,,-0.0602,-0.0539
366638,F14Nb1Sr2Ta1,f3c0bc5785,Sr2TaNbF14,"['F', 'Sr', 'Nb', 'Ta']",18,249.3506,4.762,m,Pm,6,monoclinic,-120.1519,-3.7807,-0.0276,intercalated ion,4.4625,True,0.0,,-0.0276,-0.0001
366735,Ag1F12Os1Tc1,f3d2ab82d8,TcAgOsF12,"['F', 'Tc', 'Ag', 'Os']",15,246.8536,4.1981,1,P1,1,triclinic,-79.2938,-2.129,-0.0714,1D,0.0007,True,-0.0,,-0.0714,-0.069
366800,F21P3Sn3,f3db4e7aeb,SnPF7,"['F', 'P', 'Sn']",27,402.3456,3.4999,32,R32,155,trigonal,-144.7832,-2.8287,-0.024,0D,,True,0.0,,-0.024,-0.024
366936,F24Na4Rb4Re4,f3f1922723,RbNaReF6,"['F', 'Na', 'Rb', 'Re']",36,622.9427,4.3573,mm2,Pna2_1,33,orthorhombic,-204.1112,-2.7563,-0.0716,intercalated ion,,False,0.0,,-0.0716,-0.0244
367146,Ba4F3H9Pt2,f418e56ab0,Ba4H9Pt2F3,"['H', 'F', 'Ba', 'Pt']",18,269.1623,6.2035,2,C2,5,monoclinic,-83.7925,-1.5392,-0.1566,intercalated ion,2.0665,True,0.0,,-0.1566,-0.0855
367153,F28Lu3Ru4Tb1,f41a30fe12,TbLu3Ru4F28,"['F', 'Ru', 'Tb', 'Lu']",36,512.8354,5.2457,1,P1,1,triclinic,-221.2011,-3.1218,-0.0385,3D,,True,0.0,,-0.0385,-0.0152
367625,As1Cs2F5O1,f466e3e48d,Cs2AsOF5,"['O', 'F', 'As', 'Cs']",9,197.1482,3.8048,4mm,I4mm,107,tetragonal,-44.9662,-2.6679,-0.02,intercalated ion,3.1087,True,0.0,,-0.02,-0.02
367648,Br14F4Re6,f46a37c924,Re3Br7F2,"['F', 'Br', 'Re']",24,747.7388,5.1341,m,Cm,8,monoclinic,-132.0611,-1.118,-0.1527,2D,,True,0.0,,-0.1527,-0.019
367746,Ca1F12Nb1Sb1,f47bab9f72,CaNbSbF12,"['F', 'Ca', 'Nb', 'Sb']",15,268.6687,2.9835,1,P1,1,triclinic,-88.491,-3.2878,-0.0574,intercalated ion,5.0264,True,0.0,,-0.0574,-0.0574
367915,F35Zr1,f49a979a11,ZrF35,"['F', 'Zr']",36,743.4874,1.6889,1,P1,1,triclinic,-106.9183,-0.8741,-0.3182,intercalated ion,,True,0.0,,-0.3182,-0.3182
368138,F28Ir3Tb4Tc1,f4c3eee6b9,Tb4TcIr3F28,"['F', 'Tc', 'Tb', 'Ir']",36,535.6559,5.7112,1,P1,1,triclinic,-219.8622,-3.0813,-0.0523,3D,0.0024,True,0.0,,-0.0523,-0.0509
368196,F7Na1,f4cfb58602,NaF7,"['F', 'Na']",8,138.3379,1.8723,1,P1,1,triclinic,-23.2818,-1.0724,-0.3377,intercalated ion,,False,0.0,,-0.3377,-0.3374
368885,F28Ir4Lu3Y1,f54c42c98b,YLu3Ir4F28,"['F', 'Y', 'Lu', 'Ir']",36,512.3226,6.2057,1,P1,1,triclinic,-216.1143,-2.9781,-0.0494,3D,0.0006,True,0.0,,-0.0494,-0.0303
368991,F37Y1,f562d83af6,YF37,"['F', 'Y']",38,678.2372,1.9387,1,P1,1,triclinic,-105.6365,-0.7486,-0.2825,intercalated ion,,True,0.0,,-0.2825,-0.2824
369682,F20N2Rh1V1,f5df580d13,VRh(NF10)2,"['N', 'F', 'V', 'Rh']",24,358.4186,2.6029,1,P1,1,triclinic,-108.1061,-1.5315,-0.277,0D,,True,0.0,,-0.277,-0.094
369685,Au4Ca2F20,f5dfb25662,Ca(AuF5)2,"['F', 'Ca', 'Au']",26,471.3849,4.3963,m,Pc,7,monoclinic,-106.53,-1.969,-0.0378,intercalated ion,0.0244,False,0.0,,-0.0378,-0.0345
370065,F24Se1Tc3,f61df8526b,Tc3SeF24,"['F', 'Se', 'Tc']",28,454.3669,3.0294,m,Pm,6,monoclinic,-142.8603,-2.2288,-0.1323,0D,0.0014,False,0.0,,-0.1323,-0.0039
370159,Ce1F24Sn1,f62eb577b2,CeSnF24,"['F', 'Sn', 'Ce']",26,460.5182,2.5774,1,P1,1,triclinic,-95.8899,-1.5412,-0.2393,intercalated molecule,,True,0.0,,-0.2393,-0.2393
370176,F28Pt3Tb4Tc1,f63269b9b7,Tb4TcPt3F28,"['F', 'Tc', 'Tb', 'Pt']",36,531.3595,5.7842,1,P1,1,triclinic,-209.9109,-3.0355,-0.0167,3D,1.5496,True,0.0,,-0.0167,-0.0154
370718,F6O4Sb1,f68b905a68,Sb(O2F3)2,"['O', 'F', 'Sb']",11,198.7454,2.5044,4mm,I4mm,107,tetragonal,-53.0922,-1.6093,-0.1367,0D,0.0072,True,0.0,,-0.1367,-0.0637
370785,Ba4F28I1Np3,f696a7f8e6,Ba4Np3IF28,"['F', 'I', 'Ba', 'Np']",36,621.6365,5.1266,1,P1,1,triclinic,-229.8243,-3.5628,-0.02,intercalated ion,0.2923,True,0.0,,-0.02,-0.0198
371355,F12Mg1Nb1Ru1,f6f7d9ec9a,MgNbRuF12,"['F', 'Mg', 'Nb', 'Ru']",15,233.2091,3.1776,1,P1,1,triclinic,-88.1461,-2.9488,-0.0319,intercalated ion,1.2029,True,0.0,,-0.0319,-0.0318
372040,F20Rb8Tb1Y3,f76adae718,Rb8TbY3F20,"['F', 'Rb', 'Y', 'Tb']",32,597.4069,4.1398,m,Pm,6,monoclinic,-189.5966,-3.734,-0.0474,intercalated ion,6.6095,True,0.0,,-0.0474,-0.0083
372103,Ac2Ce2F28Rh4,f774cef735,AcCeRh2F14,"['F', 'Rh', 'Ce', 'Ac']",36,565.897,4.9233,2,P2_1,4,monoclinic,-212.991,-3.0529,-0.0512,3D,,True,0.0,,-0.0512,-0.023
372788,F18Rh2S1,f7eff79995,Rh2SF18,"['F', 'S', 'Rh']",21,374.117,2.5737,m,Cm,8,monoclinic,-90.6302,-1.779,-0.0047,0D,0.8203,True,0.0,,-0.0047,-0.0036
372889,F28Pt3V1Y4,f7ff61f2ec,Y4VPt3F28,"['F', 'V', 'Y', 'Pt']",36,524.6898,4.8224,1,P1,1,triclinic,-218.1803,-3.0971,-0.0093,3D,1.9732,False,0.0,,-0.0093,-0.0093
372892,F7Na1W1,f7ffdda768,NaWF7,"['F', 'Na', 'W']",9,148.0273,3.812,1,P1,1,triclinic,-53.3186,-2.8503,-0.0113,intercalated ion,,True,0.0,,-0.0113,-0.0096
373164,F34S1Se1,f82c623266,SeSF34,"['F', 'S', 'Se']",36,686.4608,1.8311,1,P1,1,triclinic,-111.0667,-1.0679,-0.3706,0D,,True,0.0,,-0.3706,-0.2748
373297,F12K1Rb3,f84184b836,KRb3F12,"['F', 'K', 'Rb']",16,314.6196,2.7629,1,P1,1,triclinic,-56.2165,-1.8267,-0.0536,intercalated ion,2.1515,True,0.0,,-0.0536,-0.0188
373406,F28Lu4Pd1Pt1Zr2,f85310c90f,Lu4Zr2PdPtF28,"['F', 'Zr', 'Pd', 'Lu', 'Pt']",36,522.4998,5.4528,1,P1,1,triclinic,-228.2732,-3.5645,-0.0153,3D,1.3821,True,0.0,,-0.0153,-0.0076
373769,F28Hf1Lu4Re3,f88cf3c4ec,Lu4HfRe3F28,"['F', 'Lu', 'Hf', 'Re']",36,514.9141,6.3496,1,P1,1,triclinic,-247.0188,-3.559,-0.0299,3D,1.6973,True,0.0,,-0.0299,-0.0075
374027,Ba1F12Ta2,f8bdf42908,BaTa2F12,"['F', 'Ba', 'Ta']",15,287.5836,4.199,1,P1,1,triclinic,-104.9173,-3.7563,-0.0071,intercalated ion,5.8733,False,0.0,,-0.0071,-0.0071
374446,Bi1F1O11Tb6,f902a0cd7f,Tb6BiO11F,"['O', 'F', 'Tb', 'Bi']",19,276.9959,8.1381,1,P1,1,triclinic,-156.0847,-3.5816,-0.0564,3D,1.6723,True,0.0,,-0.0564,-0.0319
374981,F24K6Li2Sn4,f95fa39306,K3LiSn2F12,"['Li', 'F', 'K', 'Sn']",36,659.2857,2.9702,-42m,P-42_1c,114,tetragonal,-182.1882,-3.0498,-0.0239,intercalated ion,5.2852,True,0.0,,-0.0239,-0.0221
375235,F18Li6Nb6O9,f98d298fa9,Li2Nb2(OF2)3,"['Li', 'O', 'F', 'Nb']",39,598.9803,3.0081,32,P3_121,152,trigonal,-279.1558,-3.2861,-0.0455,intercalated ion,3.0391,True,-0.0,,-0.0455,-0.0331
375550,As1F5K2,f9c5a5a104,K2AsF5,"['F', 'K', 'As']",8,137.5348,2.9956,m,Cm,8,monoclinic,-38.6657,-2.7785,-0.0332,intercalated ion,4.8395,True,0.0,,-0.0332,-0.0154
375643,F28Gd3Y1Zr4,f9d6bca71a,Gd3YZr4F28,"['F', 'Y', 'Zr', 'Gd']",36,599.1898,4.0392,1,P1,1,triclinic,-288.0435,-4.2104,-0.0072,3D,,True,0.0,,-0.0072,-0.0043
375918,F20K4Ti4,fa05949be6,KTiF5,"['F', 'K', 'Ti']",28,454.2256,2.6608,mm2,Pmc2_1,26,orthorhombic,-175.6292,-3.6206,-0.0273,intercalated ion,4.3979,True,0.0,,-0.0273,-0.0273
376190,F2O12P4Sb2,fa311e1145,SbP2O6F,"['O', 'F', 'P', 'Sb']",20,351.0847,2.8256,1,P1,1,triclinic,-142.7573,-2.4824,-0.0255,2D,3.9571,True,-0.0,,-0.0255,-0.0255
376229,F3H1Si1,fa37e9edd4,SiHF3,"['H', 'F', 'Si']",5,78.9428,1.8109,3m,R3m,160,trigonal,-27.8158,-2.6527,-0.0129,0D,8.7132,True,0.0,,-0.0129,-0.0129
376431,Cu2F1S2,fa5807f6a6,Cu2S2F,"['F', 'S', 'Cu']",5,88.2669,3.9548,m,Cm,8,monoclinic,-22.7601,-0.8755,-0.0233,3D,0.0123,True,-0.0,,-0.0233,-0.0229
377025,F6Ge1H4,fab9b521c6,GeH4F6,"['H', 'F', 'Ge']",11,130.0554,2.4344,1,P1,1,triclinic,-50.7957,-1.9212,-0.029,0D,4.9476,False,0.0,,-0.029,-0.0143
377059,Cs4F20Zr4,fabe2ba67e,CsZrF5,"['F', 'Zr', 'Cs']",28,594.5764,3.565,mm2,Pmc2_1,26,orthorhombic,-182.4424,-3.8014,-0.0095,intercalated ion,,True,0.0,,-0.0095,-0.0094
377410,Cl16F4Nb2Ta2,faf6e66dae,TaNb(Cl4F)2,"['F', 'Cl', 'Nb', 'Ta']",24,748.6984,2.6414,1,P1,1,triclinic,-132.8733,-2.1555,-0.0125,0D,2.5035,True,0.0,,-0.0125,-0.0012
377422,F28Lu4Pt3V1,faf9217fbe,Lu4VPt3F28,"['F', 'V', 'Lu', 'Pt']",36,497.3055,6.2374,1,P1,1,triclinic,-210.9072,-3.1113,-0.0111,3D,1.941,True,0.0,,-0.0111,-0.0046
377694,F24Os1Pt2Rh1,fb287b2653,OsPt2RhF24,"['F', 'Rh', 'Os', 'Pt']",28,441.6491,4.2835,m,Pm,6,monoclinic,-124.344,-1.7048,-0.0542,0D,0.0033,True,0.0,,-0.0542,-0.0536
377790,F20Rb2Tb3Y3,fb3853ecee,Rb2Tb3Y3F20,"['F', 'Rb', 'Y', 'Tb']",28,407.5221,5.2743,mm2,Fmm2,42,orthorhombic,-193.3033,-4.2789,-0.0254,intercalated ion,7.0723,True,0.0,,-0.0254,-0.0048
377920,F7H3Si1,fb4ce6a9b7,SiH3F7,"['H', 'F', 'Si']",11,154.6396,1.7621,1,P1,1,triclinic,-57.0053,-2.5474,-0.0435,0D,7.6375,True,0.0,,-0.0435,-0.0305
378833,Cs4F20Tc4,fbed254e85,CsTcF5,"['F', 'Tc', 'Cs']",28,534.4229,4.0505,mm2,Pmc2_1,26,orthorhombic,-159.4464,-2.7212,-0.0538,intercalated ion,,True,0.0,,-0.0538,-0.0538
379044,F28Hf3Re1Tb4,fc10b73be8,Tb4Hf3ReF28,"['F', 'Tb', 'Hf', 'Re']",36,558.2051,5.6204,1,P1,1,triclinic,-261.0387,-4.074,-0.0132,3D,1.8113,False,0.0,,-0.0132,-0.0108
379113,Ag1F18Hg5,fc1cb669eb,AgHg5F18,"['F', 'Ag', 'Hg']",24,406.1623,5.9395,2,C2,5,monoclinic,-72.5053,-1.4062,-0.1199,3D,0.001,False,0.0,,-0.1199,-0.0478
379270,F28Lu1Np3W4,fc38a3f0c3,LuNp3(WF7)4,"['F', 'Lu', 'W', 'Np']",36,596.386,5.9955,1,P1,1,triclinic,-269.357,-3.3511,-0.0673,3D,,True,0.0,,-0.0673,-0.0515
379453,F13Rb1Sb4,fc56d44505,RbSb4F13,"['F', 'Rb', 'Sb']",18,316.5876,4.2983,-4,I-4,82,tetragonal,-91.9878,-2.7579,0.0,,,,0.0,,0.0,0.0
379583,F24Mo1Rh3,fc6f639a03,MoRh3F24,"['F', 'Mo', 'Rh']",28,474.8064,3.0098,m,Pm,6,monoclinic,-130.8314,-1.8578,-0.0035,0D,0.7794,False,0.0,,-0.0035,-0.0019
379650,F28Hf1La4Ru3,fc7c5425ea,La4HfRu3F28,"['F', 'Ru', 'La', 'Hf']",36,604.1224,4.3134,1,P1,1,triclinic,-234.9798,-3.4426,-0.0343,3D,0.0021,True,0.0,,-0.0343,-0.0309
381031,F7P1,fd6bc735ed,PF7,"['F', 'P']",8,134.9132,2.0181,1,P1,1,triclinic,-37.1531,-2.2949,-0.1034,0D,3.2732,True,0.0,,-0.1034,-0.1033
382166,F28Gd1Pd4Y3,fe295d878d,GdY3Pd4F28,"['F', 'Y', 'Pd', 'Gd']",36,528.7229,4.3391,1,P1,1,triclinic,-210.1718,-2.8454,-0.0803,3D,,False,0.0,,-0.0803,-0.0489
382176,F4O4Tb3Tm1,fe2abb1e10,Tb3Tm(OF)4,"['O', 'F', 'Tb', 'Tm']",12,173.4903,7.5202,1,P1,1,triclinic,-97.2487,-4.286,-0.0038,3D,4.8667,True,0.0,,-0.0038,-0.0036
382349,F28Hf3Nb1Y4,fe49708202,Y4Hf3NbF28,"['F', 'Y', 'Nb', 'Hf']",36,558.0435,4.5109,1,P1,1,triclinic,-269.7874,-4.1785,-0.0035,3D,0.2893,True,0.0,,-0.0035,-0.0015
382931,F28Ge3La4V1,feb29b267a,La4VGe3F28,"['F', 'V', 'Ge', 'La']",36,561.9667,4.0081,1,P1,1,triclinic,-225.3485,-3.5869,-0.0519,3D,2.11,True,-0.0,,-0.0519,-0.0518
382948,F24Mo1Pt3,feb62939f7,MoPt3F24,"['F', 'Mo', 'Pt']",28,481.1933,3.9242,m,Pm,6,monoclinic,-123.7665,-1.744,-0.0019,0D,0.0009,True,0.0,,-0.0019,-0.0015
382963,F36Ge3K16O16P4Ti5,feb92ce454,K16Ti5Ge3P4(O4F9)4,"['O', 'F', 'P', 'K', 'Ti', 'Ge']",80,1306.2725,2.7288,1,P1,1,triclinic,-495.8439,-3.1887,-0.0075,intercalated ion,,False,0.0,,-0.0075,-0.0074
383541,Ca8F2Sn6Tb2,ff2031db62,Ca4TbSn3F,"['F', 'Ca', 'Sn', 'Tb']",18,495.6192,4.6529,mm2,Fmm2,42,orthorhombic,-76.1938,-1.2778,-0.0096,intercalated ion,0.3683,False,-0.0,,-0.0096,-0.0095
383847,As2F16Ru1Tc1,ff58c345b1,TcAs2RuF16,"['F', 'As', 'Tc', 'Ru']",20,333.6809,3.249,m,Pm,6,monoclinic,-105.796,-2.313,-0.0204,intercalated molecule,0.0015,True,0.0,,-0.0204,-0.0159
383930,F30Hf2Lu2Tc1Zr3,ff67bdf076,Lu2Hf2Zr3TcF30,"['F', 'Zr', 'Tc', 'Lu', 'Hf']",38,501.8937,5.4543,1,P1,1,triclinic,-272.5002,-3.9525,-0.0187,3D,,True,0.0,,-0.0187,-0.0187
384003,F28Hf3Rh1Y4,ff7218cd06,Y4Hf3RhF28,"['F', 'Y', 'Rh', 'Hf']",36,550.2297,4.6052,1,P1,1,triclinic,-259.7695,-3.9763,-0.0116,3D,0.1092,True,0.0,,-0.0116,-0.0089
384045,F28Hf4Lu3Y1,ff77699452,YLu3Hf4F28,"['F', 'Y', 'Lu', 'Hf']",36,534.0912,5.782,1,P1,1,triclinic,-269.0218,-4.3234,-0.0039,3D,,True,-0.0,,-0.0039,-0.0032
384192,Ba4Ce3F24Pb1,ff8f65466f,Ba4Ce3PbF24,"['F', 'Ba', 'Ce', 'Pb']",32,522.3971,5.1902,1,P1,1,triclinic,-198.8426,-3.8681,-0.0356,intercalated ion,,True,0.0,,-0.0356,-0.0093
384209,F24Rh1Ru1Tc2,ff9237bd7a,Tc2RuRhF24,"['F', 'Tc', 'Ru', 'Rh']",28,456.9366,3.1105,m,Pm,6,monoclinic,-142.4667,-2.1154,-0.0855,0D,0.0002,True,0.0,,-0.0855,-0.0799
384293,Ac2Ce1F14Ru1,ff9ebacc76,Ac2CeRuF14,"['F', 'Ru', 'Ce', 'Ac']",18,333.9296,4.7796,1,P1,1,triclinic,-117.0513,-3.7134,-0.0719,3D,,True,0.0,,-0.0719,-0.0163