Unnamed: 0,Composition,MaterialId,Reduced Formula,Elements,NSites,Volume,Density,Point Group,Space Group,Space Group Number,Crystal System,Corrected Energy,Formation Energy Per Atom,Decomposition Energy Per Atom,Dimensionality Cheon,Bandgap,Is Train,Decomposition Energy Per Atom All,Decomposition Energy Per Atom Relative,Decomposition Energy Per Atom MP,Decomposition Energy Per Atom MP OQMD
249474,F20Sr2V6,a5de014fe4,SrV3F10,"['F', 'V', 'Sr']",28,427.2672,3.3457,mm2,Fdd2,43,orthorhombic,-191.4995,-3.4067,-0.0119,intercalated ion,0.8796,True,0.0,,-0.0119,-0.0119
249569,Ba1F12Sb1Ta1,a5ec20cc65,BaTaSbF12,"['F', 'Sb', 'Ba', 'Ta']",15,266.1304,4.1681,1,P1,1,triclinic,-91.5473,-3.3803,-0.0088,intercalated ion,,True,0.0,,-0.0088,-0.005
249600,F24Na8Ru4,a5f18d5105,Na2RuF6,"['F', 'Na', 'Ru']",36,555.904,3.119,-42m,P-42_1c,114,tetragonal,-185.3316,-2.5494,-0.141,intercalated ion,0.0878,True,0.0,,-0.141,-0.0882
249741,Ba4F28Re1W3,a60bbb9762,Ba4ReW3F28,"['F', 'Ba', 'W', 'Re']",36,524.9719,5.7537,1,P1,1,triclinic,-228.9801,-3.2351,-0.0466,intercalated ion,,True,0.0,,-0.0466,-0.027
250237,F1O17Re4Sc1V1,a6599c4d0a,ScVRe4O17F,"['O', 'F', 'Sc', 'V', 'Re']",24,418.5304,4.4901,m,Cm,8,monoclinic,-208.8937,-2.403,-0.0372,2D,2.2854,True,0.0,,-0.0372,-0.0356
250253,F1O11Ta1Tm6,a65ad22f05,Tm6TaO11F,"['O', 'F', 'Tm', 'Ta']",19,251.3934,9.1784,1,P1,1,triclinic,-171.6103,-4.0294,-0.0059,3D,4.1585,True,0.0,,-0.0059,-0.0058
250502,Ca2F14Np2,a68813baad,CaNpF7,"['F', 'Ca', 'Np']",18,319.0621,4.2683,2,P2_1,4,monoclinic,-125.6951,-3.8349,-0.0045,intercalated ion,0.2069,True,0.0,,-0.0045,-0.0043
250625,F8Pm1Tc1,a69af85b3c,PmTcF8,"['F', 'Tc', 'Pm']",10,138.8441,4.7239,1,P1,1,triclinic,-61.7043,-3.1301,-0.057,3D,,True,0.0,,-0.057,-0.0545
250671,F30Ta4Tc2,a6a458984c,Ta2TcF15,"['F', 'Tc', 'Ta']",36,666.1602,3.7135,m,Pm,6,monoclinic,-239.612,-3.1699,-0.0169,0D,0.3474,True,0.0,,-0.0169,-0.0155
250846,Ag6F18Pd3,a6c357822a,Ag2PdF6,"['F', 'Pd', 'Ag']",27,437.6671,4.9643,32,P321,150,trigonal,-108.702,-1.5467,-0.0917,3D,0.8581,True,0.0,,-0.0917,-0.0869
250914,F36Nb4Ti4,a6cd119b5c,TiNbF9,"['F', 'Ti', 'Nb']",44,704.4102,2.9397,3,R3,146,trigonal,-295.1675,-3.5083,-0.0006,0D,,True,0.0,,-0.0006,-0.0006
250973,F28Ti1V3Y4,a6d793b267,Y4TiV3F28,"['F', 'Ti', 'V', 'Y']",36,523.0961,3.4547,1,P1,1,triclinic,-250.3283,-3.7721,-0.0387,3D,,True,0.0,,-0.0387,-0.0385
251098,F2Nb1O4Sb1,a6edd3a28d,NbSb(O2F)2,"['O', 'F', 'Nb', 'Sb']",8,118.265,4.4462,1,P1,1,triclinic,-58.7396,-2.6118,-0.025,3D,2.665,True,0.0,,-0.025,-0.0172
251286,F37Gd1,a70cfdf218,GdF37,"['F', 'Gd']",38,685.2444,2.0845,1,P1,1,triclinic,-115.1698,-0.7992,-0.3663,intercalated molecule,,True,0.0,,-0.3663,-0.3366
251603,F8H4Se1,a74518fc18,H4SeF8,"['H', 'F', 'Se']",13,180.4588,2.1622,1,P1,1,triclinic,-56.8227,-1.8819,-0.0414,0D,5.322,True,0.0,,-0.0414,-0.0267
251952,As3F28Hg4Tc1,a77d092b86,TcHg4As3F28,"['F', 'As', 'Tc', 'Hg']",36,601.2773,4.5763,1,P1,1,triclinic,-158.4148,-2.2039,-0.0128,3D,,True,0.0,,-0.0128,-0.0114
252300,F28Pd1Y4Zr3,a7bd8cfb82,Y4Zr3PdF28,"['F', 'Y', 'Zr', 'Pd']",36,557.5964,3.7752,1,P1,1,triclinic,-249.812,-3.8778,-0.0142,3D,2.0477,True,0.0,,-0.0142,-0.014
252741,F30Hf1Lu2Tc1Zr4,a8093848b5,Lu2HfZr4TcF30,"['F', 'Zr', 'Tc', 'Lu', 'Hf']",38,503.4665,5.1494,2,C2,5,monoclinic,-270.4435,-3.9355,-0.0184,3D,,True,0.0,,-0.0184,-0.0183
252805,F28Pu2Tb2Tc4,a81259b904,TbPuTc2F14,"['F', 'Tc', 'Tb', 'Pu']",36,571.9619,5.022,2,P2_1,4,monoclinic,-250.5085,-3.2706,-0.0917,3D,,True,0.0,,-0.0917,-0.0913
252981,C2F22,a832477c4a,CF11,"['C', 'F']",24,436.5325,1.6813,3m,R3c,161,trigonal,-86.6081,-1.0876,-0.1779,intercalated ion,,True,0.0,,-0.1779,-0.1779
252987,F20Ta3V1,a832e1a06c,Ta3VF20,"['F', 'V', 'Ta']",24,426.1878,3.794,m,Pm,6,monoclinic,-164.0727,-3.3827,-0.0008,1D,3.0304,True,0.0,,-0.0008,-0.0007
253012,F24Hf4Na4Rb4,a837fdaea2,RbNaHfF6,"['F', 'Na', 'Rb', 'Hf']",36,645.9364,4.1228,mm2,Pna2_1,33,orthorhombic,-229.8908,-3.7488,-0.0157,intercalated ion,,True,0.0,,-0.0157,-0.0135
253223,Ce5F30Pt1Y2,a85d719310,Ce5Y2PtF30,"['F', 'Y', 'Ce', 'Pt']",38,589.309,4.6308,2,C2,5,monoclinic,-251.5979,-3.8312,-0.006,3D,0.6916,True,0.0,,-0.006,-0.006
253421,Ce2F22Hf3Sc1,a87d49527c,Ce2Hf3ScF22,"['F', 'Sc', 'Ce', 'Hf']",28,425.7843,4.9866,m,Cm,8,monoclinic,-207.8734,-4.2054,-0.0154,3D,0.0745,True,0.0,,-0.0154,-0.0153
253471,F28Ge3Pt1Tb4,a8880d0cf5,Tb4Ge3PtF28,"['F', 'Ge', 'Tb', 'Pt']",36,508.1247,5.1656,1,P1,1,triclinic,-213.505,-3.3752,-0.0345,3D,2.7256,False,0.0,,-0.0345,-0.0345
253777,F8Os1Sb1,a8bc8475f2,SbOsF8,"['F', 'Sb', 'Os']",10,176.3425,4.3691,2,C2,5,monoclinic,-53.8098,-2.3162,-0.0045,1D,1.2617,True,0.0,,-0.0045,-0.0043
254270,F24Ir4Li2Na6,a912b60c1f,Na3LiIr2F12,"['Li', 'F', 'Na', 'Ir']",36,519.6879,4.3988,-42m,P-42_1c,114,tetragonal,-180.7506,-2.438,-0.1142,intercalated ion,0.0019,True,0.0,,-0.1142,-0.1033
254440,F7H4Rh1,a9309b9fc8,H4RhF7,"['H', 'F', 'Rh']",12,139.9099,2.8476,1,P1,1,triclinic,-55.6655,-1.7792,-0.0367,2D,1.4033,True,0.0,,-0.0367,-0.0208
254712,F14Rh2Tm2,a9645d66f7,TmRhF7,"['F', 'Rh', 'Tm']",18,257.4198,5.2229,2,P2_1,4,monoclinic,-104.253,-2.9896,-0.1886,3D,0.0013,False,0.0,,-0.1886,-0.0183
254836,F28Hf1Pt2Tb4Zr1,a97a48fee6,Tb4HfZrPt2F28,"['F', 'Zr', 'Tb', 'Hf', 'Pt']",36,549.0468,5.5272,1,P1,1,triclinic,-232.4518,-3.6041,-0.003,3D,,True,0.0,,-0.003,-0.0021
254864,F28Lu1Tb3Zr4,a98092cdd7,Tb3LuZr4F28,"['F', 'Zr', 'Tb', 'Lu']",36,566.3325,4.5406,1,P1,1,triclinic,-258.7618,-4.2396,-0.005,3D,6.009,True,0.0,,-0.005,-0.0029
255215,F30Pu7Sb1,a9b7ec421b,Pu7SbF30,"['F', 'Sb', 'Pu']",38,574.2205,6.9395,2,C2,5,monoclinic,-303.0227,-3.7283,-0.0256,3D,,True,0.0,,-0.0256,-0.0243
255440,F28Hf1Pt3Y4,a9de93c4cd,Y4HfPt3F28,"['F', 'Y', 'Hf', 'Pt']",36,536.7827,5.1084,1,P1,1,triclinic,-224.8038,-3.2568,-0.0019,3D,2.4066,True,0.0,,-0.0019,-0.0013
255866,F28Lu1Pt4Tm2Y1,aa2b5bedd0,YTm2LuPt4F28,"['F', 'Y', 'Tm', 'Lu', 'Pt']",36,513.9399,6.1842,1,P1,1,triclinic,-202.8007,-2.9182,-0.1106,3D,2.2481,True,0.0,,-0.1106,-0.0269
256148,Ba6F20Hf1Nb1,aa5c34159d,Ba6HfNbF20,"['F', 'Nb', 'Ba', 'Hf']",28,462.5425,5.2965,mm2,Amm2,38,orthorhombic,-183.2022,-4.05,-0.0341,intercalated ion,1.3504,True,0.0,,-0.0341,-0.0185
256173,Ce2F22Sb1Zr3,aa6152604b,Ce2Zr3SbF22,"['F', 'Zr', 'Sb', 'Ce']",28,451.1181,4.0256,m,Cm,8,monoclinic,-192.7778,-3.896,-0.0086,3D,0.0838,True,0.0,,-0.0086,-0.0085
256233,F28Ge1Re3Tm4,aa6955c428,Tm4Re3GeF28,"['F', 'Ge', 'Tm', 'Re']",36,499.1696,6.1175,1,P1,1,triclinic,-234.3743,-3.3638,-0.1913,3D,,True,0.0,,-0.1913,-0.0204
256237,Ce1F25,aa69e93c9b,CeF25,"['F', 'Ce']",26,471.6062,2.1657,1,P1,1,triclinic,-80.203,-1.0186,-0.2377,0D,,True,0.0,,-0.2377,-0.2377
256421,As4Ca1F24Mg1,aa87f7f2fc,CaMgAs4F24,"['F', 'Mg', 'Ca', 'As']",30,467.1741,2.9147,-4,I-4,82,tetragonal,-150.833,-2.7572,-0.0261,intercalated ion,4.8508,True,0.0,,-0.0261,-0.0238
256461,F28Pt3Tm4Zr1,aa8d94acc7,Tm4ZrPt3F28,"['F', 'Zr', 'Tm', 'Pt']",36,521.0701,6.0044,1,P1,1,triclinic,-215.3572,-3.2548,-0.1662,3D,2.3334,True,0.0,,-0.1662,-0.0405
256535,Ba2F14Nb1Re1,aa9d2e5d14,Ba2NbReF14,"['F', 'Nb', 'Ba', 'Re']",18,277.3024,4.9088,m,Pm,6,monoclinic,-114.2088,-3.3925,-0.0823,intercalated ion,1.3995,True,0.0,,-0.0823,-0.04
256690,F22Hf3Np2Zr1,aab91003b0,Hf3ZrNp2F22,"['F', 'Zr', 'Hf', 'Np']",28,442.1752,5.7032,m,Cm,8,monoclinic,-219.8663,-4.0535,-0.0426,3D,0.138,True,0.0,,-0.0426,-0.0421
256716,F28Pt3Tb3Tc1Y1,aabe261683,Tb3YTcPt3F28,"['F', 'Y', 'Tc', 'Tb', 'Pt']",36,531.2775,5.5663,1,P1,1,triclinic,-211.5817,-3.031,-0.0167,3D,1.5579,True,0.0,,-0.0167,-0.0153
257816,Cs12F2Se8Y2,ab7a150eda,Cs6YSe4F,"['F', 'Se', 'Y', 'Cs']",24,979.6265,4.14,6mm,P6_3mc,186,hexagonal,-97.4366,-1.7487,-0.028,intercalated ion,,True,0.0,,-0.028,-0.0066
258018,F28La4Pt2Tc2,ab986dca7e,La2TcPtF14,"['F', 'Tc', 'La', 'Pt']",36,599.5819,4.6354,2,P2_1,4,monoclinic,-220.2667,-3.1705,-0.0608,3D,1.5737,True,0.0,,-0.0608,-0.058
258095,F18Ru1Sb1Te2,aba939ab2c,SbTe2RuF18,"['F', 'Ru', 'Sb', 'Te']",22,366.5147,3.7151,1,P1,1,triclinic,-106.8317,-2.397,-0.0098,1D,,True,-0.0,,-0.0098,-0.0084
258282,Ag1Cl1F34,abc6ac7389,AgClF34,"['F', 'Cl', 'Ag']",36,670.7753,1.9539,1,P1,1,triclinic,-91.4651,-0.6054,-0.2981,0D,,True,0.0,,-0.2981,-0.2896
258400,F10Pb1,abdc45d64c,PbF10,"['F', 'Pb']",11,215.3478,3.0627,1,P1,1,triclinic,-36.4804,-1.2412,-0.2416,intercalated molecule,1.5606,False,0.0,,-0.2416,-0.2416
258433,F36K16O16P4Ti2V6,abe10e0dda,K8TiV3P2(O4F9)2,"['O', 'F', 'P', 'K', 'Ti', 'V']",80,1306.2725,2.6578,1,P1,1,triclinic,-506.5832,-3.1111,-0.0386,intercalated ion,,True,0.0,,-0.0386,-0.0185
258519,F20K4V4,abeeee22c3,KVF5,"['F', 'K', 'V']",28,444.9832,2.7619,2,P2_1,4,monoclinic,-166.868,-3.1379,-0.1316,intercalated ion,2.1337,False,0.0,,-0.1316,-0.0257
258710,Ba1C6Ca5Cl2F2,ac128fa2c9,BaCa5C6(ClF)2,"['C', 'F', 'Cl', 'Ca', 'Ba']",16,285.6683,3.015,mm2,Amm2,38,orthorhombic,-97.5432,-1.4197,-0.0235,intercalated ion,1.334,False,0.0,,-0.0235,-0.0233
258855,F20Sb3V1,ac2b78b4ae,VSb3F20,"['F', 'V', 'Sb']",24,407.882,3.2414,1,P1,1,triclinic,-123.0754,-2.6406,-0.0075,1D,2.5004,True,0.0,,-0.0075,-0.0059
259146,F28Hf3La4Pt1,ac636729e6,La4Hf3PtF28,"['F', 'La', 'Hf', 'Pt']",36,614.0434,4.9167,1,P1,1,triclinic,-252.9654,-3.9933,-0.0237,3D,2.6998,True,0.0,,-0.0237,-0.023
259223,F3S24Sb1,ac723fe0f1,Sb(S8F)3,"['F', 'S', 'Sb']",28,917.7776,1.7158,3m,R3m,160,trigonal,-131.4369,-0.7964,-0.3529,0D,2.6051,True,0.0,,-0.3529,-0.3495
259334,F24K6Li2Ru4,ac86294838,K3LiRu2F12,"['Li', 'F', 'K', 'Ru']",36,635.6719,2.8962,-42m,P-42_1c,114,tetragonal,-187.7132,-2.6183,-0.0558,intercalated ion,0.0965,True,0.0,,-0.0558,-0.0142
259675,Ag1Ba2F14Sb1,acbef8ba2e,Ba2AgSbF14,"['F', 'Ag', 'Sb', 'Ba']",18,287.6152,4.4471,1,P1,1,triclinic,-85.6462,-2.6714,-0.0664,intercalated ion,,True,0.0,,-0.0664,-0.0088
260343,Cs5F4Lu4O40Rb3Si16,ad328c67e0,Cs5Rb3Lu4Si16(O10F)4,"['O', 'F', 'Si', 'Rb', 'Cs', 'Lu']",72,1130.9227,4.0909,m,Pm,6,monoclinic,-556.6996,-3.3171,-0.0252,intercalated ion,,True,0.0,,-0.0252,-0.0043
260423,F30Hf1Lu2Re1Zr4,ad3ea193bb,Lu2HfZr4ReF30,"['F', 'Zr', 'Lu', 'Hf', 'Re']",38,505.3313,5.4203,2,C2,5,monoclinic,-271.965,-3.9207,-0.0052,3D,1.7554,True,0.0,,-0.0052,-0.004
260789,Cs12F2In2Te8,ad792bc9d3,Cs6InTe4F,"['F', 'In', 'Te', 'Cs']",24,1120.249,4.2739,6mm,P6_3mc,186,hexagonal,-79.1858,-1.4153,-0.0612,intercalated ion,1.7635,True,0.0,,-0.0612,-0.0518
260908,F28Rh1Tb4V3,ad8cebb6c0,Tb4V3RhF28,"['F', 'V', 'Rh', 'Tb']",36,521.4635,4.5326,1,P1,1,triclinic,-233.3115,-3.5177,-0.0247,3D,0.1278,True,0.0,,-0.0247,-0.0246
260948,Br10F14Pt4,ad97025718,Pt2Br5F7,"['F', 'Br', 'Pt']",28,593.5743,5.1624,2,P2_1,4,monoclinic,-101.7916,-1.2278,-0.1006,1D,,True,0.0,,-0.1006,-0.0718
261057,F24Np1Rh2Tc1,ada8253cbd,NpTcRh2F24,"['F', 'Tc', 'Rh', 'Np']",28,479.7389,3.4502,m,Pm,6,monoclinic,-147.4621,-2.2696,-0.0227,0D,0.0008,True,0.0,,-0.0227,-0.02
261269,F28Ir3Ru1Y4,adcd0014bc,Y4Ir3RuF28,"['F', 'Y', 'Ru', 'Ir']",36,530.1332,4.903,1,P1,1,triclinic,-223.243,-3.0018,-0.0421,3D,0.0007,True,0.0,,-0.0421,-0.042
261287,F12Pb2Ru1Tc1,add0ed87b1,TcRuPb2F12,"['F', 'Tc', 'Ru', 'Pb']",16,280.8274,4.9755,1,P1,1,triclinic,-89.1773,-2.4487,-0.0962,3D,,True,0.0,,-0.0962,-0.0765
261421,Ce2F14Ga1Rh1,ade558a060,Ce2GaRhF14,"['F', 'Ga', 'Rh', 'Ce']",18,269.2948,4.4325,1,P1,1,triclinic,-108.7508,-3.3184,-0.0034,3D,0.5909,True,0.0,,-0.0034,-0.0028
261544,F16O4Rb8V4,adff91c201,Rb2VOF4,"['O', 'F', 'V', 'Rb']",32,565.6011,3.6859,222,P2_12_12_1,19,orthorhombic,-190.7779,-3.007,-0.056,intercalated ion,2.8403,True,0.0,,-0.056,-0.0085
261905,As4Ba1F24Mg1,ae3d64ea07,BaMgAs4F24,"['F', 'Mg', 'As', 'Ba']",30,510.9298,2.9812,-4,I-4,82,tetragonal,-150.9258,-2.7632,-0.0273,intercalated ion,4.82,True,0.0,,-0.0273,-0.0253
262247,F20Mo3Os1,ae74f3b379,Mo3OsF20,"['F', 'Mo', 'Os']",24,405.9956,3.5093,2,C2,5,monoclinic,-141.7857,-2.4913,-0.0018,0D,1.0558,True,0.0,,-0.0018,-0.0017
262513,F28Rh4Tb1Y3,aea078465a,TbY3Rh4F28,"['F', 'Y', 'Rh', 'Tb']",36,522.6929,4.3499,1,P1,1,triclinic,-214.2499,-2.9788,-0.0378,3D,0.0002,True,0.0,,-0.0378,-0.0349
262664,F18Ga3Na3V3,aebce35bea,NaVGaF6,"['F', 'Na', 'V', 'Ga']",27,346.8157,3.7008,32,P321,150,trigonal,-155.6134,-2.9964,-0.0019,intercalated ion,2.0396,True,0.0,,-0.0019,-0.0012
262718,F28Sr1Tc4Y3,aec5d63802,SrY3Tc4F28,"['F', 'Sr', 'Y', 'Tc']",36,557.1411,3.8099,1,P1,1,triclinic,-233.8471,-3.2721,-0.0894,intercalated ion,0.0019,True,0.0,,-0.0894,-0.0887
263287,F28Pt1Tc3Y4,af2d3c8832,Y4Tc3PtF28,"['F', 'Y', 'Tc', 'Pt']",36,534.5172,4.2768,1,P1,1,triclinic,-233.2254,-3.2413,-0.0553,3D,1.5348,True,-0.0,,-0.0553,-0.0525
263512,F28Pt1Tb4Tc3,af4e656962,Tb4Tc3PtF28,"['F', 'Tc', 'Tb', 'Pt']",36,535.1102,5.1412,1,P1,1,triclinic,-226.5376,-3.2591,-0.0554,3D,1.5385,False,0.0,,-0.0554,-0.0527
263786,Ce1F28La3Nb4,af7c1c37e0,La3CeNb4F28,"['F', 'Nb', 'La', 'Ce']",36,623.0485,3.8923,1,P1,1,triclinic,-251.2365,-3.7936,-0.0076,3D,,True,0.0,,-0.0076,-0.0045
264158,Ac1Ca9F1Si6,afbcf740ff,Ca9AcSi6F,"['F', 'Si', 'Ca', 'Ac']",17,442.6082,2.9084,m,Cm,8,monoclinic,-70.642,-0.8239,-0.0377,intercalated ion,0.0017,True,0.0,,-0.0377,-0.0359
264221,F4N2Zn5,afc8c43c9e,Zn5(NF2)2,"['N', 'F', 'Zn']",11,178.2923,4.0146,1,P1,1,triclinic,-46.9092,-1.4811,-0.0471,3D,1.5747,True,0.0,,-0.0471,-0.0252
264278,F18N1Rh2,afd4772600,Rh2NF18,"['N', 'F', 'Rh']",21,328.4975,2.8398,1,P1,1,triclinic,-84.7009,-1.2966,-0.1764,0D,,True,-0.0,,-0.1764,-0.071
264749,Cl2F2O6,b028420cd3,ClO3F,"['O', 'F', 'Cl']",10,161.4391,2.1076,m,Cc,9,monoclinic,-43.1624,-0.5955,-0.1071,0D,,True,0.0,,-0.1071,-0.0148
265286,F7H4Ir1,b0819e0339,H4IrF7,"['H', 'F', 'Ir']",12,141.6658,3.8592,1,P1,1,triclinic,-56.2579,-1.7057,-0.039,2D,1.6069,True,0.0,,-0.039,-0.023
265327,F24Mo3Te1,b08780a5cc,TeMo3F24,"['F', 'Mo', 'Te']",28,485.0819,2.9829,m,Pm,6,monoclinic,-152.7114,-2.5413,-0.0011,0D,4.1908,False,0.0,,-0.0011,-0.0001
265434,F8O4Rb2Tc2,b0993f09d2,RbTc(OF2)2,"['O', 'F', 'Rb', 'Tc']",16,320.7691,3.0176,-42m,P-42_1m,113,tetragonal,-96.8806,-2.4447,-0.1036,intercalated ion,,True,0.0,,-0.1036,-0.1026
265673,Ca14F2O34Si8Ta2,b0bddb0097,Ca7TaSi4O17F,"['O', 'F', 'Si', 'Ca', 'Ta']",60,810.7488,3.5426,m,Pc,7,monoclinic,-478.2463,-3.5166,-0.0072,intercalated ion,4.4321,True,0.0,,-0.0072,-0.0072
265725,F2O4Tc2,b0c898f137,TcO2F,"['O', 'F', 'Tc']",8,113.2871,4.3679,m,Cc,9,monoclinic,-61.1524,-2.102,-0.0704,3D,0.0054,True,0.0,,-0.0704,-0.0704
266160,F14Ir1Tc1Tm2,b1125061b3,Tm2TcIrF14,"['F', 'Tc', 'Tm', 'Ir']",18,263.1187,5.6424,1,P1,1,triclinic,-112.0682,-3.1754,-0.2094,3D,0.0015,True,0.0,,-0.2094,-0.0388
266616,F14Ir2Tm2,b162f7df1f,TmIrF7,"['F', 'Tm', 'Ir']",18,260.8856,6.2904,2,P2_1,4,monoclinic,-107.0715,-2.9823,-0.1978,3D,0.0046,True,0.0,,-0.1978,-0.0303
267037,Ac1Ce3F15,b1a895107b,AcCe3F15,"['F', 'Ce', 'Ac']",19,337.5115,4.587,3m,R3m,160,trigonal,-129.858,-4.1719,-0.0368,3D,2.3284,True,0.0,,-0.0368,-0.0115
267550,Ca1F12Os1Ta1,b203e05491,CaTaOsF12,"['F', 'Ca', 'Ta', 'Os']",15,269.6691,3.9362,1,P1,1,triclinic,-95.4554,-3.1618,-0.0368,0D,1.4438,True,0.0,,-0.0368,-0.0367
268068,Ba1Br2F12,b260a09b5d,Ba(BrF6)2,"['F', 'Br', 'Ba']",15,275.3911,3.1663,1,P1,1,triclinic,-56.7866,-1.9104,-0.0145,intercalated ion,3.5904,True,0.0,,-0.0145,-0.0142
268912,F24Np3Sb1,b2eb627506,Np3SbF24,"['F', 'Sb', 'Np']",28,496.2887,4.312,m,Pm,6,monoclinic,-178.2157,-3.1917,-0.0263,0D,0.0089,True,0.0,,-0.0263,-0.0252
269016,F28Hf3Tb4Tc1,b2fdd4aeb3,Tb4Hf3TcF28,"['F', 'Tc', 'Tb', 'Hf']",36,554.8959,5.3899,1,P1,1,triclinic,-259.5157,-4.0896,-0.0271,3D,1.801,True,0.0,,-0.0271,-0.0258
269671,As1F3S24,b36e07e8ad,As(S8F)3,"['F', 'S', 'As']",28,899.9052,1.6634,3m,R3m,160,trigonal,-131.4335,-0.7773,-0.4104,0D,2.5877,True,0.0,,-0.4104,-0.4061
270071,F24Ga4Na4Pb4,b3b0c1075a,NaGaPbF6,"['F', 'Na', 'Ga', 'Pb']",36,550.7869,4.9914,222,P2_12_12_1,19,orthorhombic,-183.2601,-2.9203,-0.0221,intercalated ion,5.1247,True,0.0,,-0.0221,-0.0206
270131,Au2Cl2F12,b3b94de878,AuClF6,"['F', 'Cl', 'Au']",16,271.9426,4.2305,2,P2_1,4,monoclinic,-51.7321,-1.1593,-0.0182,0D,2.0488,True,0.0,,-0.0182,-0.0134
270339,F2Ir1P2Ru1Sr2,b3dfbfc3fb,Sr2P2IrRuF2,"['F', 'P', 'Sr', 'Ru', 'Ir']",8,142.7154,6.6143,-42m,P-4m2,115,tetragonal,-53.5471,-2.1757,-0.0154,intercalated ion,0.0452,True,0.0,,-0.0154,-0.0152
270403,F28Ge1Lu4Pd3,b3ea55e680,Lu4GePd3F28,"['F', 'Ge', 'Pd', 'Lu']",36,486.6773,5.5401,1,P1,1,triclinic,-200.6951,-3.0258,-0.0483,3D,1.6535,True,0.0,,-0.0483,-0.0229
270406,Ag6F18Pt1Tc2,b3eace9c00,Tc2Ag6PtF18,"['F', 'Tc', 'Ag', 'Pt']",27,463.4009,4.946,3,P3,143,trigonal,-127.5715,-1.8288,-0.0868,3D,1.4202,True,0.0,,-0.0868,-0.0832
270785,F28Hf1Lu4Pd3,b4247f5a5c,Lu4HfPd3F28,"['F', 'Pd', 'Lu', 'Hf']",36,504.4268,5.6936,1,P1,1,triclinic,-213.3239,-3.2284,-0.0385,3D,1.7017,True,0.0,,-0.0385,-0.0194
271396,F34Se2,b489c03cb5,SeF17,"['F', 'Se']",36,676.7279,1.9725,1,P1,1,triclinic,-109.4551,-1.0409,-0.4651,0D,,True,0.0,,-0.4651,-0.2735
272315,Ce2F22Tm1Zr3,b52c2f8fad,Ce2TmZr3F22,"['F', 'Zr', 'Ce', 'Tm']",28,444.8972,4.2579,m,Cm,8,monoclinic,-200.7851,-4.1696,-0.019,3D,0.0314,True,0.0,,-0.019,-0.0188
272459,Al12Ca6F54K5Rb1,b54802c56a,K5RbCa6Al12F54,"['F', 'Al', 'K', 'Ca', 'Rb']",78,1055.139,2.9447,2,C2,5,monoclinic,-467.9369,-3.8616,-0.0012,intercalated ion,7.1373,True,0.0,,-0.0012,-0.0011
272462,Al2F1K3Nb11O20Rb1,b54857c52e,K3RbNb11Al2O20F,"['O', 'F', 'Al', 'K', 'Rb', 'Nb']",38,509.2798,5.2746,mm2,Imm2,44,orthorhombic,-328.3624,-2.752,-0.0122,intercalated ion,,True,0.0,,-0.0122,-0.0116
272675,F28Tb1Tc4Y3,b56c34bad9,TbY3Tc4F28,"['F', 'Y', 'Tc', 'Tb']",36,537.7486,4.1675,1,P1,1,triclinic,-239.8707,-3.3576,-0.0936,3D,1.6179,True,0.0,,-0.0936,-0.0936
273148,Cd1F12Gd3,b5b53110f6,Gd3CdF12,"['F', 'Cd', 'Gd']",16,208.3614,6.4724,m,Pm,6,monoclinic,-132.2389,-4.1344,-0.5846,3D,,False,0.0,,-0.5846,-0.3537
273156,F20Ru1V3,b5b5b9b27e,V3RuF20,"['F', 'V', 'Ru']",24,422.3998,2.4918,1,P1,1,triclinic,-137.43,-2.6114,-0.0015,1D,0.9645,True,0.0,,-0.0015,-0.0013
273410,Al8Cs3F18K3O16P4,b5e09d27b3,Cs3K3Al8P4(O8F9)2,"['O', 'F', 'Al', 'P', 'K', 'Cs']",52,679.4195,3.553,1,P1,1,triclinic,-346.5091,-3.3712,-0.0039,intercalated ion,,True,0.0,,-0.0039,-0.0019
273460,Cl4F20O8Pd4,b5e86940e9,PdClO2F5,"['O', 'F', 'Cl', 'Pd']",36,562.8569,3.1728,222,C222_1,20,orthorhombic,-147.5709,-1.1568,-0.0591,intercalated molecule,0.5506,True,0.0,,-0.0591,-0.003
273498,F20Rb4V4,b5ee0958af,RbVF5,"['F', 'V', 'Rb']",28,478.6106,3.2114,mm2,Pmc2_1,26,orthorhombic,-166.6239,-3.1477,-0.0959,intercalated ion,2.1137,True,0.0,,-0.0959,-0.0336
273688,Au2F24Pu2,b61267fb0f,PuAuF12,"['F', 'Au', 'Pu']",28,424.4827,5.2337,mm2,Pmn2_1,31,orthorhombic,-141.394,-2.1584,-0.3163,0D,,True,-0.0,,-0.3163,-0.2719
274284,Cl1F3I4Nb2,b680570ea0,Nb2I4ClF3,"['F', 'Cl', 'Nb', 'I']",10,346.6352,3.7647,m,Cm,8,monoclinic,-52.4675,-1.8586,-0.0277,1D,1.4683,True,0.0,,-0.0277,-0.0247
274358,Ba1F12Ru2,b68b3fef88,BaRu2F12,"['F', 'Ru', 'Ba']",15,274.0031,3.4389,1,P1,1,triclinic,-81.3036,-2.5265,-0.0775,intercalated ion,0.54,False,0.0,,-0.0775,-0.0756
274467,F12Mg1Nb1Rh1,b69c047aa4,MgNbRhF12,"['F', 'Mg', 'Nb', 'Rh']",15,232.3152,3.2029,1,P1,1,triclinic,-83.9846,-2.7987,-0.0123,1D,0.0037,True,0.0,,-0.0123,-0.0119
274700,Au1F12Ru1Sr1,b6c7bbf3a2,SrRuAuF12,"['F', 'Sr', 'Ru', 'Au']",15,268.9471,3.7887,1,P1,1,triclinic,-69.9825,-2.1871,-0.0458,intercalated ion,,True,0.0,,-0.0458,-0.0288
274886,F3Np1S24,b6e781bfa1,Np(S8F)3,"['F', 'S', 'Np']",28,903.6349,1.9544,3m,R3m,160,trigonal,-142.771,-0.8862,-0.3247,0D,,True,0.0,,-0.3247,-0.3246
275068,F6Li1Rb1W1,b70817ed7f,RbLiWF6,"['Li', 'F', 'Rb', 'W']",9,160.1975,4.0451,2,C2,5,monoclinic,-54.3212,-3.0005,-0.1472,intercalated ion,3.8085,False,0.0,,-0.1472,-0.023
275286,Cs1F3Pm2Sn1,b72e2419af,CsPm2SnF3,"['F', 'Sn', 'Cs', 'Pm']",7,165.5319,6.005,mm2,Amm2,38,orthorhombic,-38.5728,-2.6332,-0.0629,intercalated ion,,True,-0.0,,-0.0629,-0.0128
275860,Au2F30Ta4,b78c538061,Ta2AuF15,"['F', 'Ta', 'Au']",36,666.1602,4.2069,m,Pm,6,monoclinic,-210.7609,-2.7622,-0.0028,0D,,True,0.0,,-0.0028,-0.0022
276043,Br4F32O4Sb2V2,b7ac652b7c,VSbBr2(OF8)2,"['O', 'F', 'V', 'Br', 'Sb']",44,703.8833,3.1541,1,P1,1,triclinic,-201.5219,-1.9907,-0.0205,0D,,False,0.0,,-0.0205,-0.0188
276136,F3Lu1S24,b7bf0c4c3a,Lu(S8F)3,"['F', 'S', 'Lu']",28,951.9854,1.7469,3m,R3m,160,trigonal,-136.1781,-0.9517,-0.3155,0D,,True,0.0,,-0.3155,-0.3073