Unnamed: 0,Composition,MaterialId,Reduced Formula,Elements,NSites,Volume,Density,Point Group,Space Group,Space Group Number,Crystal System,Corrected Energy,Formation Energy Per Atom,Decomposition Energy Per Atom,Dimensionality Cheon,Bandgap,Is Train,Decomposition Energy Per Atom All,Decomposition Energy Per Atom Relative,Decomposition Energy Per Atom MP,Decomposition Energy Per Atom MP OQMD
307686,F28La4Pd2V2,ccab69b357,La2VPdF14,"['F', 'V', 'Pd', 'La']",36,580.6521,4.0103,2,P2_1,4,monoclinic,-220.6279,-3.301,-0.0185,3D,1.3131,True,0.0,,-0.0185,-0.0184
307981,Al12Ca6Cs6F54,ccdd39869e,CsCaAl2F9,"['F', 'Al', 'Ca', 'Cs']",78,1139.1669,3.4803,222,C222_1,20,orthorhombic,-466.8036,-3.8619,-0.0075,intercalated ion,,False,0.0,,-0.0075,-0.0075
308297,F28Tm3Y1Zr4,cd11f6518b,YTm3Zr4F28,"['F', 'Y', 'Zr', 'Tm']",36,556.5412,4.4533,1,P1,1,triclinic,-260.2367,-4.2397,-0.0052,3D,5.9898,True,0.0,,-0.0052,-0.0049
308416,F28Pd4Tm3Y1,cd25e594a8,YTm3Pd4F28,"['F', 'Y', 'Pd', 'Tm']",36,505.0137,5.1076,1,P1,1,triclinic,-197.2051,-2.8631,-0.1641,3D,1.6455,True,0.0,,-0.1641,-0.0385
308490,Ag4As1F28Pt3,cd32aead56,Ag4AsPt3F28,"['F', 'As', 'Ag', 'Pt']",36,589.0956,4.5766,m,Pm,6,monoclinic,-148.2891,-1.6824,-0.0048,3D,,True,0.0,,-0.0048,-0.0043
309022,F8Hg2K1,cd88b227b0,KHg2F8,"['F', 'K', 'Hg']",11,222.6503,4.4172,2,C2,5,monoclinic,-35.4638,-1.6777,-0.1482,intercalated ion,,True,0.0,,-0.1482,-0.0597
309030,Al6Cs2F21In1,cd89b58c0e,Cs2Al6InF21,"['F', 'Al', 'In', 'Cs']",30,443.0271,3.5288,2,C2,5,monoclinic,-176.6698,-3.6504,-0.0031,intercalated ion,4.3607,True,0.0,,-0.0031,-0.0016
309266,Ca1F12Np3,cdb6265b3d,CaNp3F12,"['F', 'Ca', 'Np']",16,206.9579,7.8555,m,Pm,6,monoclinic,-126.4829,-3.9185,-0.0252,intercalated ion,,True,0.0,,-0.0252,-0.0215
309374,F5Y1,cdc77434e9,YF5,"['F', 'Y']",6,85.1449,3.5865,1,P1,1,triclinic,-34.3685,-3.0574,-0.1055,intercalated molecule,,True,0.0,,-0.1055,-0.1054
309604,F28Hf3Tc1Y4,cde9b2e208,Y4Hf3TcF28,"['F', 'Y', 'Tc', 'Hf']",36,554.0394,4.5588,1,P1,1,triclinic,-266.2388,-4.0728,-0.0273,3D,1.7883,True,0.0,,-0.0273,-0.0253
309638,As1Br2F12O4V1,cdefd470ae,VAsBr2(OF3)4,"['O', 'F', 'V', 'As', 'Br']",20,324.3446,2.9574,2,P2,3,monoclinic,-96.4546,-1.8354,-0.0201,0D,,True,0.0,,-0.0201,-0.0124
309658,F28Lu3Rh4Y1,cdf3fbde9c,YLu3Rh4F28,"['F', 'Y', 'Rh', 'Lu']",36,501.4433,5.1573,1,P1,1,triclinic,-210.4989,-2.9859,-0.0408,3D,0.0011,True,-0.0,,-0.0408,-0.0189
309676,Al6Cs2F21Na1,cdf803ee4d,Cs2NaAl6F21,"['F', 'Na', 'Al', 'Cs']",30,422.0118,3.3432,2,C2,5,monoclinic,-178.0833,-3.7452,-0.0028,intercalated ion,7.1909,False,0.0,,-0.0028,-0.0027
309764,Cl1F7N3,ce030775e5,N3ClF7,"['N', 'F', 'Cl']",11,214.2203,1.6314,1,P1,1,triclinic,-48.6199,-0.762,-0.1437,0D,0.437,True,0.0,,-0.1437,-0.0217
309865,F12Nb1Ta1V1,ce14a21d80,TaNbVF12,"['F', 'V', 'Nb', 'Ta']",15,238.729,3.845,1,P1,1,triclinic,-105.2115,-3.4154,-0.0407,1D,1.4066,True,-0.0,,-0.0407,-0.0407
309875,Ca1F12Ru1Sb1,ce16be105d,CaSbRuF12,"['F', 'Ca', 'Ru', 'Sb']",15,264.4164,3.0828,1,P1,1,triclinic,-79.7675,-2.7614,-0.0783,intercalated ion,1.2917,False,0.0,,-0.0783,-0.0774
310094,F28Hf1Pt3Tb4,ce40fbe986,Tb4HfPt3F28,"['F', 'Tb', 'Hf', 'Pt']",36,537.0082,5.9723,1,P1,1,triclinic,-218.1252,-3.2749,-0.0019,3D,2.4215,True,0.0,,-0.0019,-0.0015
310217,F24Os2Re2,ce55bbe664,ReOsF12,"['F', 'Re', 'Os']",28,458.9308,4.3739,mm2,Pmn2_1,31,orthorhombic,-157.3536,-2.2905,-0.0138,0D,0.0034,False,0.0,,-0.0138,-0.0092
311022,As1F20Pu3,cedbfebbd8,Pu3AsF20,"['F', 'As', 'Pu']",24,406.0651,4.8536,2,C2,5,monoclinic,-162.4033,-3.1963,-0.2228,0D,,True,0.0,,-0.2228,-0.2218
312340,F14La1Np2Y1,cfb6f30e0e,LaYNp2F14,"['F', 'Y', 'La', 'Np']",18,328.3689,4.894,1,P1,1,triclinic,-138.3491,-4.1272,-0.0078,3D,0.001,True,0.0,,-0.0078,-0.0077
312345,F16Rb6Ta2,cfb78cf933,Rb3TaF8,"['F', 'Rb', 'Ta']",24,442.3803,4.4243,6mm,P6_3mc,186,hexagonal,-141.9782,-3.4082,-0.0077,intercalated ion,3.8834,True,0.0,,-0.0077,-0.0062
313051,Au2F20Nb1V1,d02ee3cd50,NbV(AuF10)2,"['F', 'V', 'Nb', 'Au']",24,397.294,3.8358,1,P1,1,triclinic,-114.6354,-2.1114,-0.0051,1D,,True,0.0,,-0.0051,-0.0042
313374,F8Li2O4Tc2,d0663a2a90,LiTc(OF2)2,"['Li', 'O', 'F', 'Tc']",16,208.9382,3.3846,-42m,P-42_1m,113,tetragonal,-98.5399,-2.4323,-0.0184,intercalated ion,2.3875,True,0.0,,-0.0184,-0.0122
313636,F20K4Sn4,d0970fbdf6,KSnF5,"['F', 'K', 'Sn']",28,482.1808,3.4824,222,P2_12_12_1,19,orthorhombic,-140.9011,-2.9354,-0.0234,intercalated ion,4.3491,True,-0.0,,-0.0234,-0.0231
313698,F14Lu2Pu2,d0a03da2a4,LuPuF7,"['F', 'Lu', 'Pu']",18,293.2438,6.2511,2,P2_1,4,monoclinic,-138.5501,-4.1229,-0.0318,3D,,True,0.0,,-0.0318,-0.0055
313745,F12Mo1Sb1Sr1,d0a80ded00,SrSbMoF12,"['F', 'Sr', 'Mo', 'Sb']",15,266.9065,3.3179,1,P1,1,triclinic,-84.5945,-2.9995,-0.0572,intercalated ion,,True,0.0,,-0.0572,-0.0283
313893,Cu2F12Li2Zn2,d0bfbe5822,LiZnCuF6,"['Li', 'F', 'Cu', 'Zn']",18,202.7496,4.0932,4mm,P4_2nm,102,tetragonal,-79.8056,-2.3518,-0.0092,intercalated ion,0.3914,True,0.0,,-0.0092,-0.0061
314699,Cs4F24Na4Pb4,d150049691,CsNaPbF6,"['F', 'Na', 'Cs', 'Pb']",36,718.2971,4.4117,mm2,Pna2_1,33,orthorhombic,-166.7978,-2.7,-0.1934,intercalated ion,3.4201,True,0.0,,-0.1934,-0.0028
314868,F24Re2Te2,d1706bd15a,ReTeF12,"['F', 'Te', 'Re']",28,492.9843,3.6499,mm2,Pmn2_1,31,orthorhombic,-145.3398,-2.4389,-0.0057,0D,0.0014,True,0.0,,-0.0057,-0.0013
315137,Ce1F3S24,d19a2f6637,Ce(S8F)3,"['F', 'S', 'Ce']",28,988.7328,1.6235,3m,R3m,160,trigonal,-137.606,-0.9523,-0.3368,0D,,True,0.0,,-0.3368,-0.3329
315171,Ba2F14Nb1Ta1,d19fb7fd97,Ba2TaNbF14,"['F', 'Nb', 'Ba', 'Ta']",18,278.0244,4.8646,m,Pm,6,monoclinic,-120.9441,-3.7992,-0.053,intercalated ion,4.5734,True,0.0,,-0.053,-0.0354
315316,F28Gd4Hf1Zr3,d1b5ff50ab,Gd4HfZr3F28,"['F', 'Zr', 'Gd', 'Hf']",36,570.9862,4.6913,1,P1,1,triclinic,-297.675,-4.2269,-0.0062,3D,,True,0.0,,-0.0062,-0.0021
315590,F28Pt3Tc1Tm4,d1e226cc9b,Tm4TcPt3F28,"['F', 'Tc', 'Tm', 'Pt']",36,510.2853,6.1534,1,P1,1,triclinic,-209.3438,-3.0374,-0.2123,3D,1.4992,True,0.0,,-0.2123,-0.0434
316291,F14La2Nb2,d25464e5ef,LaNbF7,"['F', 'Nb', 'La']",18,317.4752,3.8161,2,P2_1,4,monoclinic,-125.356,-3.8067,-0.0003,3D,0.1947,True,0.0,,-0.0003,-0.0003
316817,F3S24Se1,d2b0d421a2,Se(S8F)3,"['F', 'S', 'Se']",28,980.0055,1.5343,3m,R3m,160,trigonal,-126.1999,-0.632,-0.2459,0D,,True,0.0,,-0.2459,-0.245
317177,Cs10F20O40Rb2Sc8Si16,d2e8d0ea22,Cs5RbSc4Si8(O2F)10,"['O', 'F', 'Si', 'Sc', 'Rb', 'Cs']",96,1533.5673,3.6046,mm2,Pmc2_1,26,orthorhombic,-714.8241,-3.4406,-0.0137,intercalated ion,,True,-0.0,,-0.0137,-0.0121
317702,F28Pd1Tb4Zr3,d341bc0dac,Tb4Zr3PdF28,"['F', 'Zr', 'Pd', 'Tb']",36,560.7264,4.5835,1,P1,1,triclinic,-243.1117,-3.8953,-0.0146,3D,2.0583,True,0.0,,-0.0146,-0.0131
317853,F28La3Pt4Sr1,d35e11d182,SrLa3Pt4F28,"['F', 'Sr', 'La', 'Pt']",36,595.1387,5.0687,1,P1,1,triclinic,-196.4503,-2.8374,-0.082,intercalated ion,0.0067,True,0.0,,-0.082,-0.0539
317961,F14Pu2Tb2,d371a88129,TbPuF7,"['F', 'Tb', 'Pu']",18,309.275,5.7548,2,P2_1,4,monoclinic,-138.804,-4.1244,-0.027,3D,0.6119,True,0.0,,-0.027,-0.0261
318052,Al3F18Li3Zn3,d383036928,LiAlZnF6,"['Li', 'F', 'Al', 'Zn']",27,289.7173,3.668,32,P321,150,trigonal,-144.5205,-3.31,-0.0057,intercalated ion,5.6533,False,0.0,,-0.0057,-0.0011
318115,Cs4F20Sn4,d38dd97421,CsSnF5,"['F', 'Sn', 'Cs']",28,576.5954,3.9928,mm2,Pmc2_1,26,orthorhombic,-140.8267,-2.9635,-0.0377,intercalated ion,4.502,True,0.0,,-0.0377,-0.0376
318199,F1Ge1K5La4O16Si3,d39c0365f9,K5La4Si3GeO16F,"['O', 'F', 'Si', 'K', 'Ge', 'La']",30,442.0438,4.4439,1,P1,1,triclinic,-222.9691,-3.1898,-0.0037,intercalated ion,,True,0.0,,-0.0037,-0.0004
318262,Ba6F2O30Re6Sr4,d3a7e053bf,Ba3Sr2Re3O15F,"['O', 'F', 'Sr', 'Ba', 'Re']",48,791.4125,5.8952,6mm,P6_3cm,185,hexagonal,-382.164,-2.8534,-0.0801,intercalated ion,,True,0.0,,-0.0801,-0.0203
318298,As1F28Rh3Tb4,d3af247f24,Tb4AsRh3F28,"['F', 'As', 'Rh', 'Tb']",36,523.441,4.9213,1,P1,1,triclinic,-210.1508,-3.0928,-0.0202,3D,0.003,False,0.0,,-0.0202,-0.0187
318570,Ba4F60Sb12,d3ddf1a965,BaSb3F15,"['F', 'Sb', 'Ba']",76,1528.7153,3.422,222,P2_12_12_1,19,orthorhombic,-397.4783,-2.968,-0.0386,intercalated ion,,True,0.0,,-0.0386,-0.0327
318939,F30Hf5Pt1Y2,d41bde2847,Y2Hf5PtF30,"['F', 'Y', 'Hf', 'Pt']",38,507.2584,6.008,2,C2,5,monoclinic,-273.8124,-3.8863,-0.0061,3D,2.5289,True,0.0,,-0.0061,-0.0055
318991,F2In1O20Rb4Sc1Si8,d425d3b476,Rb4ScInSi8(O10F)2,"['O', 'F', 'Si', 'Sc', 'Rb', 'In']",36,552.1418,3.261,4,I4,79,tetragonal,-272.005,-3.1337,-0.0128,intercalated ion,,True,-0.0,,-0.0128,-0.0061
319405,As1Ba4F20Sb3,d4673a1b7b,Ba4Sb3AsF20,"['F', 'As', 'Sb', 'Ba']",28,519.816,4.3748,m,Pm,6,monoclinic,-156.316,-3.3344,-0.0033,intercalated ion,4.8263,True,0.0,,-0.0033,-0.0033
319686,F14Lu2Rh2,d490ba3b7e,LuRhF7,"['F', 'Rh', 'Lu']",18,257.4198,5.3007,2,P2_1,4,monoclinic,-104.2317,-2.9834,-0.0354,3D,,True,0.0,,-0.0354,-0.0072
319724,F14Sb2Sn2,d497acda57,SnSbF7,"['F', 'Sn', 'Sb']",18,290.7954,4.2651,2,P2_1,4,monoclinic,-91.9617,-2.718,-0.0126,3D,2.7597,True,0.0,,-0.0126,-0.0126
319775,As12F60Sr4,d49eff4aa6,SrAs3F15,"['F', 'As', 'Sr']",76,1230.5555,3.2244,222,P2_12_12_1,19,orthorhombic,-388.1032,-2.773,-0.0731,intercalated ion,,False,0.0,,-0.0731,-0.073
319884,Ba8F34Tb6,d4b44feb7e,Ba4Tb3F17,"['F', 'Ba', 'Tb']",48,749.7873,5.9755,1,P1,1,triclinic,-316.63,-4.3434,-0.0275,intercalated ion,,True,0.0,,-0.0275,-0.0092
320079,F24Pu3W1,d4d5d9bdfb,Pu3WF24,"['F', 'W', 'Pu']",28,553.1615,4.118,m,Pm,6,monoclinic,-189.1992,-3.1272,-0.3881,0D,0.031,True,-0.0,,-0.3881,-0.3868
320284,F9O2Pt2,d4fa683a44,Pt2O2F9,"['O', 'F', 'Pt']",13,201.0201,4.8998,1,P1,1,triclinic,-56.9046,-1.3587,-0.0526,intercalated molecule,,True,0.0,,-0.0526,-0.0518
320315,Ag1F35,d4fdfb4288,AgF35,"['F', 'Ag']",36,663.1353,1.9352,1,P1,1,triclinic,-85.902,-0.4491,-0.3028,intercalated ion,,True,0.0,,-0.3028,-0.3028
320362,F14Tc2Tm2,d50636cf0b,TmTcF7,"['F', 'Tc', 'Tm']",18,262.0767,5.0679,2,P2_1,4,monoclinic,-117.0546,-3.3678,-0.2439,3D,1.5188,True,0.0,,-0.2439,-0.0764
320885,F28Pb4Tb3Y1,d564d9aae3,Tb3YPb4F28,"['F', 'Y', 'Tb', 'Pb']",36,602.6482,5.3081,1,P1,1,triclinic,-205.4975,-3.2432,-0.0403,3D,,True,-0.0,,-0.0403,-0.0402
321704,F30Hf3Y2Zr3,d5ef720d4d,Y2Hf3Zr3F30,"['F', 'Y', 'Zr', 'Hf']",38,519.7966,4.9737,1,P1,1,triclinic,-284.2265,-4.1693,-0.006,3D,5.7098,True,0.0,,-0.006,-0.0047
322208,Ce3F20K2La3,d6437b93d6,K2La3Ce3F20,"['F', 'K', 'La', 'Ce']",28,473.9661,4.5378,mm2,Fmm2,42,orthorhombic,-194.3671,-4.3325,-0.1134,intercalated ion,inf,False,0.0,,-0.1134,-0.0977
322426,F3H9Pt2Sr4,d6664fce1b,Sr4H9Pt2F3,"['H', 'F', 'Sr', 'Pt']",18,227.1602,5.8971,2,C2,5,monoclinic,-83.1686,-1.5555,-0.1413,intercalated ion,1.5274,True,0.0,,-0.1413,-0.0714
322587,F20O2Re2Ta2,d68525dce6,TaReOF10,"['O', 'F', 'Ta', 'Re']",26,450.0209,4.2297,2,P2,3,monoclinic,-174.1238,-2.9767,-0.0357,0D,1.9061,True,0.0,,-0.0357,-0.0329
322703,F1La6Np1O11,d6990b1760,La6NpO11F,"['O', 'F', 'La', 'Np']",19,319.9053,6.5685,1,P1,1,triclinic,-173.3349,-3.9175,-0.0606,3D,0.145,True,-0.0,,-0.0606,-0.0463
322800,As1Ca10F1Si5,d6aca3b6d6,Ca10Si5AsF,"['F', 'Si', 'Ca', 'As']",17,426.2992,2.474,222,I222,23,orthorhombic,-69.4677,-0.9244,-0.0155,intercalated ion,0.0202,True,0.0,,-0.0155,-0.0154
323052,Cl1F8H5,d6d8cc2ae8,H5ClF8,"['H', 'F', 'Cl']",14,193.4114,1.6525,1,P1,1,triclinic,-55.7477,-1.546,-0.0604,0D,3.3027,True,0.0,,-0.0604,-0.0407
323364,F14Re1Tm2Zr1,d70ceb36f1,Tm2ZrReF14,"['F', 'Zr', 'Tm', 'Re']",18,271.0737,5.3985,1,P1,1,triclinic,-124.6067,-3.7723,-0.0937,3D,1.6723,False,0.0,,-0.0937,-0.0075
323414,C2F2O6Tb1Tm1,d714d93468,TbTmC2(O3F)2,"['C', 'O', 'F', 'Tb', 'Tm']",12,187.518,4.3026,m,Pm,6,monoclinic,-98.6221,-3.129,-0.0938,3D,4.717,True,0.0,,-0.0938,-0.0937
323614,F24Ir2Pd1Pt1,d735fc8d8c,Ir2PdPtF24,"['F', 'Pd', 'Ir', 'Pt']",28,445.1827,4.2593,m,Pm,6,monoclinic,-119.8922,-1.6103,-0.0642,0D,0.156,True,-0.0,,-0.0642,-0.0295
323648,F15Np1Pu1Zr2,d73bbe8446,PuZr2NpF15,"['F', 'Zr', 'Np', 'Pu']",19,296.4279,5.3129,m,Cm,8,monoclinic,-148.3997,-3.9693,-0.0127,3D,,True,0.0,,-0.0127,-0.0126
323776,F20In6O40Rb12Sc2Si16,d751fbbda9,Rb6ScIn3Si8(O2F)10,"['O', 'F', 'Si', 'Sc', 'Rb', 'In']",96,1533.5673,3.5448,2,P2_1,4,monoclinic,-661.8923,-3.1041,-0.009,intercalated ion,,True,0.0,,-0.009,-0.0007
323807,As1F12Mg1V1,d75792eb51,MgVAsF12,"['F', 'Mg', 'V', 'As']",15,211.7478,2.9655,1,P1,1,triclinic,-81.2757,-2.8663,-0.0214,,3.086,,-0.0,,-0.0214,-0.0213
323927,Ce2F22Sc1Zr3,d770cb7015,Ce2Zr3ScF22,"['F', 'Sc', 'Zr', 'Ce']",28,434.4139,3.8868,m,Cm,8,monoclinic,-201.4824,-4.1281,-0.0117,3D,0.0427,False,0.0,,-0.0117,-0.0116
324124,F28Pd3Pt1Tm4,d794112c7a,Tm4Pd3PtF28,"['F', 'Pd', 'Tm', 'Pt']",36,503.0186,5.6847,1,P1,1,triclinic,-196.8032,-2.8824,-0.2075,3D,1.2405,True,0.0,,-0.2075,-0.04
324270,F42K10Pb8,d7ad6037ad,K5Pb4F21,"['F', 'K', 'Pb']",60,1066.8258,4.4307,2,P2_1,4,monoclinic,-276.6718,-2.5931,-0.1484,intercalated ion,,True,0.0,,-0.1484,-0.0187
324301,C1F36O1,d7b355e17e,COF36,"['C', 'O', 'F']",38,683.1052,1.7307,1,P1,1,triclinic,-106.8024,-0.6267,-0.3001,intercalated ion,,True,0.0,,-0.3001,-0.2981
324798,As1F1Si5Sr10,d80e0bbf3a,Sr10Si5AsF,"['F', 'Si', 'As', 'Sr']",17,512.0809,3.6012,222,I222,23,orthorhombic,-64.9122,-0.8424,-0.0218,intercalated ion,0.0059,True,0.0,,-0.0218,-0.0212
325110,F28Hf1Ir3Lu4,d8406909b1,Lu4HfIr3F28,"['F', 'Lu', 'Hf', 'Ir']",36,511.8936,6.4455,1,P1,1,triclinic,-227.53,-3.3181,-0.0386,3D,0.0007,True,0.0,,-0.0386,-0.0195
325337,F24Ir1Np1W2,d861952db4,NpIr(WF12)2,"['F', 'W', 'Ir', 'Np']",28,497.9415,4.178,m,Pm,6,monoclinic,-170.0792,-2.7322,-0.0026,0D,,False,0.0,,-0.0026,-0.0008
325499,F28Sb3Tb1Tc4,d87b6af126,TbTc4Sb3F28,"['F', 'Tc', 'Sb', 'Tb']",36,537.7486,4.4718,1,P1,1,triclinic,-210.5033,-2.7366,-0.0527,3D,,True,0.0,,-0.0527,-0.0527
325728,Ca9F1Lu1Si6,d8a1f98834,Ca9LuSi6F,"['F', 'Si', 'Ca', 'Lu']",17,419.7073,2.8612,m,Cm,8,monoclinic,-71.2602,-0.8368,-0.0047,intercalated ion,,True,0.0,,-0.0047,-0.0046
325955,Ba1Cu2F12K3,d8cae67184,K3BaCu2F12,"['F', 'K', 'Cu', 'Ba']",18,283.0581,3.5767,-42m,P-4m2,115,tetragonal,-82.9055,-2.5844,-0.1977,intercalated ion,0.0116,True,0.0,,-0.1977,-0.0043
326475,Ag3F18Na6,d925961c9b,Na2AgF6,"['F', 'Na', 'Ag']",27,416.9508,3.2001,32,P321,150,trigonal,-105.7042,-2.032,-0.0584,intercalated ion,0.0004,True,0.0,,-0.0584,-0.0579
327402,Ag2F12Os1Tc1,d9bf817607,TcAg2OsF12,"['F', 'Tc', 'Ag', 'Os']",16,265.2879,4.5815,1,P1,1,triclinic,-83.204,-2.0633,-0.1203,1D,0.7688,True,0.0,,-0.1203,-0.1196
327420,B2Cl2F8Pb2,d9c29b674f,BPbClF4,"['B', 'F', 'Cl', 'Pb']",14,218.5143,5.0072,mm2,Pmn2_1,31,orthorhombic,-78.3723,-2.7571,-0.0693,0D,4.2826,True,0.0,,-0.0693,-0.0594
327587,Au2F24Pt2,d9e15ed5c5,PtAuF12,"['F', 'Pt', 'Au']",28,424.4827,4.851,mm2,Pmn2_1,31,orthorhombic,-99.9902,-1.2652,-0.051,0D,,True,0.0,,-0.051,-0.0072
327603,Ba6F4N8Rb2Re2,d9e31b0b0a,RbBa3Re(N2F)2,"['N', 'F', 'Rb', 'Ba', 'Re']",22,512.7847,5.0367,m,Pm,6,monoclinic,-150.0007,-1.6954,-0.0729,intercalated ion,1.8998,True,0.0,,-0.0729,-0.0712
327611,F18Ir1Pd1S1,d9e4260a34,IrPdSF18,"['F', 'S', 'Pd', 'Ir']",21,341.4332,3.2715,1,P1,1,triclinic,-88.7878,-1.7251,-0.0573,0D,0.0035,True,0.0,,-0.0573,-0.0122
328043,Br1F6H3,da2d1780a4,H3BrF6,"['H', 'F', 'Br']",10,140.6124,2.3255,1,P1,1,triclinic,-38.942,-1.5658,-0.0518,0D,3.0982,True,0.0,,-0.0518,-0.0369
328127,F28La4Pd2Ti2,da3a4998b2,La2TiPdF14,"['F', 'Ti', 'Pd', 'La']",36,580.6521,3.9927,2,P2_1,4,monoclinic,-225.2184,-3.4945,-0.0571,3D,,True,0.0,,-0.0571,-0.0571
328586,As1Ca10F1Si5,da820a6266,Ca10Si5AsF,"['F', 'Si', 'Ca', 'As']",17,426.2997,2.474,222,I222,23,orthorhombic,-69.4677,-0.9244,-0.0155,intercalated ion,0.0202,True,0.0,,-0.0155,-0.0154
328649,F24Mo2Te2,da8daab173,TeMoF12,"['F', 'Mo', 'Te']",28,485.0567,3.0915,mm2,Pmn2_1,31,orthorhombic,-143.5826,-2.4903,-0.0008,0D,4.206,True,0.0,,-0.0008,-0.0001
328990,Ag1F34Ir1,dac763955b,AgIrF34,"['F', 'Ag', 'Ir']",36,676.2176,2.3231,1,P1,1,triclinic,-105.0268,-0.7879,-0.2863,0D,,True,0.0,,-0.2863,-0.2857
329543,F28Gd1V4Y3,db279add55,GdY3V4F28,"['F', 'V', 'Y', 'Gd']",36,514.8405,3.7404,1,P1,1,triclinic,-255.4842,-3.6703,-0.0671,3D,,True,0.0,,-0.0671,-0.0355
330027,F14La2Pu2,db7d6effe7,LaPuF7,"['F', 'La', 'Pu']",18,341.9812,5.01,2,P2_1,4,monoclinic,-139.657,-4.1383,-0.03,3D,0.6389,True,0.0,,-0.03,-0.0291
330548,F28Gd4V1Zr3,dbd489c1fd,Gd4Zr3VF28,"['F', 'V', 'Zr', 'Gd']",36,560.5135,4.401,1,P1,1,triclinic,-290.9901,-4.0654,-0.0426,3D,,True,0.0,,-0.0426,-0.0083
330566,F30P1V1,dbd873929b,VPF30,"['F', 'P', 'V']",32,590.8773,1.8319,m,Cm,8,monoclinic,-114.7914,-1.3422,-0.2681,0D,,False,0.0,,-0.2681,-0.268
330601,Ca4F3H9Pt2,dbdd7d276e,Ca4H9Pt2F3,"['H', 'F', 'Ca', 'Pt']",18,191.1747,5.3553,2,C2,5,monoclinic,-83.855,-1.5234,-0.1435,intercalated ion,,True,0.0,,-0.1435,-0.1016
330907,Ac2Cs10F18,dc1326097c,Cs5AcF9,"['F', 'Cs', 'Ac']",30,770.9043,4.5773,mm2,Cmc2_1,36,orthorhombic,-146.5766,-3.1658,-0.0933,intercalated ion,,True,0.0,,-0.0933,-0.0193
331463,F28Pt3Tc1Y4,dc7a33f5dc,Y4TcPt3F28,"['F', 'Y', 'Tc', 'Pt']",36,529.7859,4.9235,1,P1,1,triclinic,-216.5763,-3.0171,-0.0165,3D,1.5477,True,0.0,,-0.0165,-0.0151
331638,F4H3Li1,dc9359e635,LiH3F4,"['H', 'Li', 'F']",8,73.7528,1.9353,1,P1,1,triclinic,-37.1721,-2.1799,-0.0621,intercalated ion,7.727,True,0.0,,-0.0621,-0.0466
331979,Ac3Ba1F28W4,dcd1b87568,BaAc3(WF7)4,"['F', 'Ba', 'W', 'Ac']",36,678.0201,5.1079,1,P1,1,triclinic,-245.8664,-3.5064,-0.1287,intercalated ion,,True,0.0,,-0.1287,-0.0795
332096,F3Mo1S24,dce71aafc1,Mo(S8F)3,"['F', 'S', 'Mo']",28,986.6212,1.5526,3m,R3m,160,trigonal,-136.253,-0.7285,-0.3322,0D,,True,0.0,,-0.3322,-0.3322
333323,Ba4F4S5Sb4Se3,ddb7f2b9c9,Ba4Sb4Se3S5F4,"['F', 'S', 'Se', 'Sb', 'Ba']",20,553.0182,4.5327,1,P1,1,triclinic,-103.7859,-2.0389,-0.0193,intercalated ion,1.3139,True,0.0,,-0.0193,-0.0192
333719,Ag2F5Nb1O1,ddfd779509,NbAg2OF5,"['O', 'F', 'Nb', 'Ag']",9,145.04,4.8043,m,Cm,8,monoclinic,-52.0275,-2.4173,-0.0201,3D,2.3575,True,0.0,,-0.0201,-0.0104
333799,F28Pt1Tm4V3,de0b1bb5f7,Tm4V3PtF28,"['F', 'V', 'Tm', 'Pt']",36,496.9948,5.1975,1,P1,1,triclinic,-230.8729,-3.5035,-0.1999,3D,1.8965,True,0.0,,-0.1999,-0.0323
333981,Ce1F20K2Tm5,de2796f8c8,K2CeTm5F20,"['F', 'K', 'Ce', 'Tm']",28,392.2893,6.1079,4mm,I4mm,107,tetragonal,-189.0493,-4.296,-0.0666,intercalated ion,0.1263,True,0.0,,-0.0666,-0.0055
334034,F28Pt1Y4Zr3,de2eec5249,Y4Zr3PtF28,"['F', 'Y', 'Zr', 'Pt']",36,562.0894,4.0069,1,P1,1,triclinic,-251.2438,-3.8928,-0.0034,3D,2.6168,True,0.0,,-0.0034,-0.0032
334241,Ac1Ce3F28Ir4,de4cb0c1b1,AcCe3Ir4F28,"['F', 'Ce', 'Ir', 'Ac']",36,552.5787,5.8544,1,P1,1,triclinic,-219.4424,-3.018,-0.0609,3D,,True,0.0,,-0.0609,-0.0474
334466,C1F2Tb1Y1,de74c8f961,TbYCF2,"['C', 'F', 'Y', 'Tb']",5,76.0862,6.5002,3m,P3m1,156,trigonal,-37.071,-2.5841,-0.0611,3D,1.0935,False,0.0,,-0.0611,-0.0001
334568,As1Ca1F12Rh1,de87542479,CaAsRhF12,"['F', 'Ca', 'As', 'Rh']",15,245.0929,3.0209,1,P1,1,triclinic,-74.8093,-2.5228,-0.0237,intercalated ion,,True,0.0,,-0.0237,-0.021
334674,Cl12F24Sb4Se4,de97b3054e,SbSe(ClF2)3,"['F', 'Cl', 'Se', 'Sb']",44,963.2082,2.9036,222,P2_12_12_1,19,orthorhombic,-186.5736,-2.0004,-0.0755,0D,,True,0.0,,-0.0755,-0.0743
334697,As1Ba2Br1F14,de9acaf7b9,Ba2AsBrF14,"['F', 'As', 'Br', 'Ba']",18,283.9641,4.0668,1,P1,1,triclinic,-85.2641,-2.6872,-0.0395,intercalated ion,3.4304,True,0.0,,-0.0395,-0.0377
334901,F18I1Rh1S1,debddd2f4e,RhSIF18,"['F', 'S', 'Rh', 'I']",21,361.3653,2.7748,m,Cm,8,monoclinic,-86.3718,-1.8543,-0.012,0D,0.0006,False,0.0,,-0.012,-0.011
335752,Ce1F24Np5,df4dcb9737,CeNp5F24,"['F', 'Ce', 'Np']",30,467.7098,6.3235,2,C2,5,monoclinic,-233.3,-3.8917,-0.0093,3D,0.0002,True,0.0,,-0.0093,-0.0091
335761,F12H7W1,df4ea123a4,H7WF12,"['H', 'F', 'W']",20,237.6606,2.9267,2,C2,5,monoclinic,-101.3798,-2.0867,-0.0724,0D,3.4984,True,0.0,,-0.0724,-0.0588
336300,F28Hf1Re3Tb4,dfad5f4f46,Tb4HfRe3F28,"['F', 'Tb', 'Hf', 'Re']",36,551.0039,5.7403,1,P1,1,triclinic,-247.6133,-3.5629,-0.0289,3D,1.6796,False,0.0,,-0.0289,-0.0251
336409,F28La4Os1Zr3,dfc309f4cb,La4Zr3OsF28,"['F', 'Zr', 'La', 'Os']",36,619.8862,4.1561,1,P1,1,triclinic,-252.6196,-3.9579,-0.0015,3D,,True,0.0,,-0.0015,-0.0
336448,F7Sb1,dfcb8aaa5e,SbF7,"['F', 'Sb']",8,151.1644,2.7984,1,P1,1,triclinic,-33.8575,-2.0435,-0.049,intercalated molecule,2.9895,True,0.0,,-0.049,-0.0452