Unnamed: 0,Composition,MaterialId,Reduced Formula,Elements,NSites,Volume,Density,Point Group,Space Group,Space Group Number,Crystal System,Corrected Energy,Formation Energy Per Atom,Decomposition Energy Per Atom,Dimensionality Cheon,Bandgap,Is Train,Decomposition Energy Per Atom All,Decomposition Energy Per Atom Relative,Decomposition Energy Per Atom MP,Decomposition Energy Per Atom MP OQMD
4819,B4Ca8Cd4O28P4,033401c767,Ca2CdBPO7,"['B', 'O', 'P', 'Ca', 'Cd']",48,642.0284,3.5832,mm2,Pna2_1,33,orthorhombic,-348.4104,-2.9533,-0.0071,intercalated ion,,True,0.0,,-0.0071,-0.0071
8100,B8Ce1O20Zr3,056e07c29b,CeZr3(B2O5)4,"['B', 'O', 'Zr', 'Ce']",32,291.2775,4.6762,1,P1,1,triclinic,-286.5374,-3.2052,-0.0044,3D,2.0884,True,0.0,,-0.0044,-0.0044
10748,B4K4Mg3O32P8Zn1,073e39e7f7,K4Mg3ZnB4(PO4)8,"['B', 'O', 'Mg', 'P', 'K', 'Zn']",52,707.9434,2.5748,1,P1,1,triclinic,-384.9066,-2.8086,-0.0072,intercalated ion,,False,0.0,,-0.0072,-0.007
13470,B4Ga4O16Pb1Sn3,0906ceb900,Ga4Sn3B4PbO16,"['B', 'O', 'Ga', 'Sn', 'Pb']",28,354.4892,5.3469,m,Pm,6,monoclinic,-198.5181,-2.3136,-0.0188,3D,3.0177,True,0.0,,-0.0188,-0.0143
13730,B2La6Np2O18,092dbcb121,La3NpBO9,"['B', 'O', 'La', 'Np']",28,415.7428,6.4587,6,P6_3,173,hexagonal,-260.7495,-3.672,-0.1615,3D,0.6737,True,0.0,,-0.1615,-0.1443
17072,B2F12O2,0b6ff23a5e,BOF6,"['B', 'O', 'F']",16,229.1298,2.0408,m,Cc,9,monoclinic,-75.2511,-1.8162,-0.0733,0D,0.1871,True,0.0,,-0.0733,-0.0638
19880,Ag1B18Ba2Li1O30,0d50512370,Ba2LiAg(B3O5)6,"['Li', 'B', 'O', 'Ag', 'Ba']",52,650.3745,2.7167,32,R32,155,trigonal,-426.4247,-2.8688,-0.0036,intercalated ion,4.2239,True,0.0,,-0.0036,-0.0036
30786,B2La6O18Te2,1488fe976b,La3BTeO9,"['B', 'O', 'Te', 'La']",28,400.4828,5.7976,6,P6_3,173,hexagonal,-227.8111,-3.1959,-0.0068,3D,3.353,True,0.0,,-0.0068,-0.0068
33812,B20Be8La1O44Tb2Y1,169206bb99,LaTb2YBe8(B5O11)4,"['Be', 'B', 'O', 'Y', 'La', 'Tb']",76,758.2383,3.3681,1,P1,1,triclinic,-637.1839,-3.096,-0.0142,intercalated ion,,True,0.0,,-0.0142,-0.0142
41582,As5B1Ca3O20Sr3,1bba045ee8,Sr3Ca3B(AsO4)5,"['B', 'O', 'Ca', 'As', 'Sr']",32,494.382,3.6561,1,P1,1,triclinic,-224.1146,-2.628,-0.0033,intercalated ion,3.6411,True,0.0,,-0.0033,-0.0033
44832,B2Ba2O6P2Sr4,1df13413b0,BaSr2BPO3,"['B', 'O', 'P', 'Sr', 'Ba']",16,328.35,4.0695,6mm,P6_3mc,186,hexagonal,-105.4791,-2.5631,-0.0047,intercalated ion,2.1869,True,0.0,,-0.0047,-0.0047
47879,B20Be8O44Tb2Y2,1ff3ea5be8,TbYBe4(B5O11)2,"['Be', 'B', 'O', 'Y', 'Tb']",76,758.2383,3.2586,2,P2_1,4,monoclinic,-638.686,-3.0957,-0.0123,intercalated ion,5.4184,True,0.0,,-0.0123,-0.0123
54876,Ac2B10O19Sr1,2477266823,SrAc2B10O19,"['B', 'O', 'Sr', 'Ac']",32,353.093,4.4852,2,C2,5,monoclinic,-271.5435,-3.1502,-0.1085,intercalated ion,,True,0.0,,-0.1085,-0.1085
60347,B10Ca1Np2O19,2836366f6f,CaNp2B10O19,"['B', 'O', 'Ca', 'Np']",32,333.7423,4.6082,2,C2,5,monoclinic,-284.4883,-2.9932,-0.0066,intercalated ion,0.2767,True,0.0,,-0.0066,-0.0066
61233,B8Ca5Cd3O20,28cb1553b4,Ca5Cd3(B2O5)4,"['B', 'O', 'Ca', 'Cd']",36,443.4384,3.5354,1,P1,1,triclinic,-268.5286,-2.8705,-0.0013,intercalated ion,3.1372,True,-0.0,,-0.0013,-0.0013
70689,Al4B2Ga6O18,2f2409888c,Al2Ga3BO9,"['B', 'O', 'Al', 'Ga']",30,360.7057,3.848,mm2,Cmc2_1,36,orthorhombic,-218.895,-2.7774,-0.0102,3D,3.5252,True,0.0,,-0.0102,-0.0088
73828,B4Ca4O16Tb2Y2,313ca5d718,Ca2TbY(BO4)2,"['B', 'O', 'Ca', 'Y', 'Tb']",28,371.4588,4.2701,mm2,Pmc2_1,26,orthorhombic,-234.8843,-3.5277,-0.0089,intercalated ion,4.2747,True,0.0,,-0.0089,-0.0039
75470,B8Ba5Ga8O32Sr3,324bec0644,Ba5Sr3Ga8(BO4)8,"['B', 'O', 'Ga', 'Sr', 'Ba']",56,908.6349,3.8483,m,Pm,6,monoclinic,-411.693,-2.8756,-0.0029,intercalated ion,3.7668,True,0.0,,-0.0029,-0.002
82035,Al2B2Be2O14Tb4,36be9d39d5,Tb2BeAlBO7,"['Be', 'B', 'O', 'Al', 'Tb']",24,259.3981,6.1026,2,P2_1,4,monoclinic,-201.5799,-3.5601,-0.0353,intercalated ion,5.0398,True,0.0,,-0.0353,-0.002
87445,B3F5O2,3a54247ac9,B3O2F5,"['B', 'O', 'F']",10,150.3891,1.7603,1,P1,1,triclinic,-69.6198,-3.0128,-0.0051,0D,7.2085,True,0.0,,-0.0051,-0.005
91335,B4Ca4O16Tb1Y3,3ceb069df0,Ca4TbY3(BO4)4,"['B', 'O', 'Ca', 'Y', 'Tb']",28,370.8063,3.964,m,Pm,6,monoclinic,-236.6705,-3.526,-0.0046,intercalated ion,4.3068,True,-0.0,,-0.0046,-0.002
91645,B4O24Rb4Si8,3d2026bb8c,RbSi2BO6,"['B', 'O', 'Si', 'Rb']",40,509.5457,3.2386,222,P2_12_12_1,19,orthorhombic,-314.3365,-3.0386,-0.0165,intercalated ion,,True,0.0,,-0.0165,-0.0108
92483,B4O16Sr4Tb3Y1,3db78a8797,Sr4Tb3Y(BO4)4,"['B', 'O', 'Sr', 'Y', 'Tb']",28,397.2763,5.0801,m,Pm,6,monoclinic,-230.9789,-3.4988,-0.01,intercalated ion,4.1261,False,0.0,,-0.01,-0.0062
97917,Ag4B1C1O6,414e71d89b,Ag4BCO6,"['B', 'C', 'O', 'Ag']",12,164.1846,5.5656,m,Pm,6,monoclinic,-71.9774,-1.2544,-0.001,3D,0.0069,True,0.0,,-0.001,-0.0009
99082,B1Cl2In1O3Zn2,4212cc1a82,Zn2InBCl2O3,"['B', 'O', 'Cl', 'Zn', 'In']",9,197.2684,3.1596,32,R32,155,trigonal,-48.0074,-1.9462,-0.036,intercalated ion,3.0,True,0.0,,-0.036,-0.027
104193,B4O16Pb3Sn1V4,457d6c631a,V4SnB4Pb3O16,"['B', 'O', 'V', 'Sn', 'Pb']",28,369.5434,5.5868,m,Pm,6,monoclinic,-224.7851,-2.4078,-0.0148,3D,1.8826,True,0.0,,-0.0148,-0.0144
104987,As1B10Ba6O28P1Zn2,4602271ea4,Ba6Zn2B10AsPO28,"['B', 'O', 'P', 'Zn', 'As', 'Ba']",48,627.235,4.2802,m,Pm,6,monoclinic,-370.0754,-2.9299,-0.0002,intercalated ion,,False,0.0,,-0.0002,-0.0002
105818,B24Ca5Cd3O48Pb4,46933594e5,Ca5Cd3B24(PbO12)4,"['B', 'O', 'Ca', 'Cd', 'Pb']",84,934.8876,4.2519,1,P1,1,triclinic,-657.6945,-2.7648,-0.0026,intercalated ion,,True,0.0,,-0.0026,-0.0026
106200,B4Ca4Lu3O16Tm1,46d593dc55,Ca4TmLu3(BO4)4,"['B', 'O', 'Ca', 'Tm', 'Lu']",28,354.2013,5.4072,m,Pm,6,monoclinic,-231.966,-3.5721,-0.0168,intercalated ion,4.404,False,0.0,,-0.0168,-0.0127
121892,B2F8Na2O4,512d9cca67,NaB(OF2)2,"['B', 'O', 'F', 'Na']",16,267.0117,1.7636,m,Cc,9,monoclinic,-90.1597,-2.442,-0.0166,intercalated ion,2.211,True,-0.0,,-0.0166,-0.0128
121936,B4Gd1O16Sr4Y3,513479ec15,Sr4GdY3(BO4)4,"['B', 'O', 'Sr', 'Y', 'Gd']",28,398.0962,4.4785,m,Pm,6,monoclinic,-243.8006,-3.4886,-0.0076,intercalated ion,3.619,True,0.0,,-0.0076,-0.0066
123263,Al4B4Ca3O16Sr1,5211bce94a,SrCa3Al4(BO4)4,"['B', 'O', 'Al', 'Ca', 'Sr']",28,381.6046,2.6762,1,P1,1,triclinic,-221.4566,-3.3173,-0.0005,intercalated ion,4.7287,True,0.0,,-0.0005,-0.0005
125503,B2F7O2,538bdfcb57,B2O2F7,"['B', 'O', 'F']",11,165.7109,1.87,1,P1,1,triclinic,-62.7909,-2.3778,-0.0299,0D,0.8343,True,0.0,,-0.0299,-0.0013
137370,Al2B2Be2Gd4O14,5b6a230f84,Gd2BeAlBO7,"['Be', 'B', 'O', 'Al', 'Gd']",24,265.2244,5.9266,2,P2_1,4,monoclinic,-238.5499,-3.5269,-0.0085,intercalated ion,3.3207,True,0.0,,-0.0085,-0.0051
141018,B2Be2Ga2La4O14,5de00d06c4,La2BeGaBO7,"['Be', 'B', 'O', 'Ga', 'La']",24,293.2155,5.4293,2,P2_1,4,monoclinic,-194.9215,-3.2922,-0.0029,intercalated ion,4.541,True,0.0,,-0.0029,-0.0029
141936,B4F2O5,5e7d87fec4,B4O5F2,"['B', 'O', 'F']",11,124.7228,2.1467,1,P1,1,triclinic,-86.9766,-2.8815,-0.0068,2D,6.6197,False,0.0,,-0.0068,-0.0068
147284,As5B1O20Sr6,6204573b99,Sr6B(AsO4)5,"['B', 'O', 'As', 'Sr']",32,527.4664,3.8758,-4,P-4,81,tetragonal,-223.2553,-2.6308,-0.0056,intercalated ion,3.5375,True,-0.0,,-0.0056,-0.0056
154748,B4Gd1O16Sr4Tb3,67040a2da4,Sr4Tb3Gd(BO4)4,"['B', 'O', 'Sr', 'Gd', 'Tb']",28,398.2675,5.3524,m,Pm,6,monoclinic,-238.4551,-3.494,-0.0109,intercalated ion,3.6193,True,0.0,,-0.0109,-0.007
154767,B10La2O19Sr1,6707b374dd,SrLa2B10O19,"['B', 'O', 'Sr', 'La']",32,346.5644,3.7255,2,C2,5,monoclinic,-272.8175,-3.1391,-0.0059,intercalated ion,4.3054,True,0.0,,-0.0059,-0.0059
156442,B6Ba10F2O18,681cb69261,Ba5B3O9F,"['B', 'O', 'F', 'Ba']",36,612.8897,4.7796,222,C222_1,20,orthorhombic,-269.1929,-3.2511,-0.0153,intercalated ion,3.5308,False,0.0,,-0.0153,-0.0153
159150,Ac1B2Li1O5,69de4ec045,LiAcB2O5,"['Li', 'B', 'O', 'Ac']",9,109.7415,5.0775,2,C2,5,monoclinic,-72.4937,-3.1517,-0.087,intercalated ion,4.9278,True,0.0,,-0.087,-0.0833
159472,B4Ca1Cd3Ga4O16,6a114a185b,CaCd3Ga4(BO4)4,"['B', 'O', 'Ca', 'Ga', 'Cd']",28,382.0512,4.1527,1,P1,1,triclinic,-190.6556,-2.4244,-0.0045,intercalated ion,2.598,True,0.0,,-0.0045,-0.0045
163433,B20Be8Gd3O44Y1,6cbe64da36,Gd3YBe8(B5O11)4,"['Be', 'B', 'O', 'Y', 'Gd']",76,766.9654,3.3622,1,P1,1,triclinic,-664.7785,-3.0904,-0.0209,intercalated ion,,True,-0.0,,-0.0209,-0.0023
174177,B4Ca4Lu1O16Tm3,73f2694215,Ca4Tm3Lu(BO4)4,"['B', 'O', 'Ca', 'Tm', 'Lu']",28,356.5499,5.3154,m,Pm,6,monoclinic,-231.7692,-3.5683,-0.0186,intercalated ion,4.3886,True,0.0,,-0.0186,-0.0145
175460,B20Be8O44Pu4,74cbab9814,PuBe2B5O11,"['Be', 'B', 'O', 'Pu']",76,758.6528,4.3082,mm2,Pna2_1,33,orthorhombic,-666.2805,-2.9999,-0.0457,intercalated ion,,True,0.0,,-0.0457,-0.0377
177277,B18Na2O30Pb2,76033b6742,NaB9PbO15,"['B', 'O', 'Na', 'Pb']",52,603.0185,3.1254,3m,R3c,161,trigonal,-421.404,-2.7434,-0.0111,intercalated ion,,True,-0.0,,-0.0111,-0.0111
178221,B4Ca4Gd1O16Tb3,76a109a294,Ca4Tb3Gd(BO4)4,"['B', 'O', 'Ca', 'Gd', 'Tb']",28,373.7464,4.8587,m,Pm,6,monoclinic,-240.5332,-3.5231,-0.0177,intercalated ion,3.716,False,0.0,,-0.0177,-0.0057
179883,B4O24Rb4Si8,77c2771c4e,RbSi2BO6,"['B', 'O', 'Si', 'Rb']",40,509.5457,3.2386,222,P2_12_12_1,19,orthorhombic,-314.3365,-3.0386,-0.0165,intercalated ion,,True,0.0,,-0.0165,-0.0108
183217,B20Be8O44Sc1Y3,79f52c46b8,Y3ScBe8(B5O11)4,"['Be', 'B', 'O', 'Sc', 'Y']",76,752.1799,2.8787,1,P1,1,triclinic,-640.9263,-3.0787,-0.0005,intercalated ion,,True,0.0,,-0.0005,-0.0005
183851,Al4B4O16Pb2Sn2,7a6202bad9,Al2SnB2PbO8,"['B', 'O', 'Al', 'Sn', 'Pb']",28,333.0343,5.2802,mm2,Pmn2_1,31,orthorhombic,-212.8759,-2.7344,-0.0094,3D,2.9284,True,0.0,,-0.0094,-0.0094
184200,As3B3O15Sr3,7a9b29be60,SrBAsO5,"['B', 'O', 'As', 'Sr']",24,313.321,4.0281,3,P3_1,144,trigonal,-176.547,-2.6351,-0.0042,intercalated ion,3.393,True,-0.0,,-0.0042,-0.0042
192844,B20Br4O36Pb4Sn4,80624a91ae,SnB5PbBrO9,"['B', 'O', 'Br', 'Sn', 'Pb']",68,889.5154,4.5091,2,P2,3,monoclinic,-519.7178,-2.5083,-0.0275,3D,2.7878,True,-0.0,,-0.0275,-0.0021
193197,As2B2Ba1O7,809dab1d07,BaB2As2O7,"['B', 'O', 'As', 'Ba']",12,159.8563,4.371,32,R32,155,trigonal,-89.4695,-2.5198,-0.0203,intercalated ion,3.7891,True,0.0,,-0.0203,-0.0199
195262,Ac2B10Cd1O19,81efc4f9ae,Ac2CdB10O19,"['B', 'O', 'Cd', 'Ac']",32,340.0602,4.7781,2,C2,5,monoclinic,-265.9294,-2.9987,-0.1078,3D,,False,0.0,,-0.1078,-0.1078
199983,B4K4Mg3O32P8Zn1,8526297176,K4Mg3ZnB4(PO4)8,"['B', 'O', 'Mg', 'P', 'K', 'Zn']",52,707.9434,2.5748,1,P1,1,triclinic,-384.9084,-2.8086,-0.0073,intercalated ion,,False,0.0,,-0.0073,-0.007
200181,B16Ca5Cd3O40Sr8,85487ab020,Sr8Ca5Cd3(B2O5)8,"['B', 'O', 'Ca', 'Sr', 'Cd']",72,926.9579,3.6751,1,P1,1,triclinic,-550.1655,-3.0426,-0.0007,intercalated ion,3.8735,True,0.0,,-0.0007,-0.0007
200197,As2B2Cd6O14,854b44a3bc,Cd3BAsO7,"['B', 'O', 'As', 'Cd']",24,347.3407,5.115,m,Cm,8,monoclinic,-142.3141,-1.8678,-0.0065,3D,1.7593,True,0.0,,-0.0065,-0.0027
205100,B12In4O20,8885a59bd1,InB3O5,"['B', 'O', 'In']",36,484.9427,3.1126,222,P2_12_12_1,19,orthorhombic,-281.695,-2.5438,-0.015,3D,3.2537,True,0.0,,-0.015,-0.015
209027,B2Bi6O18W2,8b1eef5225,Bi3BWO9,"['B', 'O', 'W', 'Bi']",28,398.8298,8.0405,6,P6_3,173,hexagonal,-210.2064,-2.0903,-0.0139,3D,2.8592,True,0.0,,-0.0139,-0.0139
218983,B24Ba6Be4O52Sr6,91b72252bd,Ba3Sr3Be2(B6O13)2,"['Be', 'B', 'O', 'Sr', 'Ba']",92,1127.238,3.6491,2,P2_1,4,monoclinic,-741.0513,-3.1179,-0.0007,intercalated ion,,True,-0.0,,-0.0007,-0.0007
225554,B2Ba4O40P10Sr8,9609b3886c,Ba2Sr4B(PO4)5,"['B', 'O', 'P', 'Sr', 'Ba']",64,980.7136,3.7616,-42m,I-4c2,120,tetragonal,-494.3155,-3.2455,-0.0026,intercalated ion,4.7077,True,0.0,,-0.0026,-0.0026
256312,B20Be8Lu1O44Y3,aa760acf80,Y3LuBe8(B5O11)4,"['Be', 'B', 'O', 'Y', 'Lu']",76,754.9904,3.1539,1,P1,1,triclinic,-640.2148,-3.0932,-0.0043,intercalated ion,5.476,False,0.0,,-0.0043,-0.0043
257959,B24Ca7Cd1O48Pb4,ab8ebc1030,Ca7CdB24(PbO12)4,"['B', 'O', 'Ca', 'Cd', 'Pb']",84,939.5381,3.9752,1,P1,1,triclinic,-668.7498,-2.8706,-0.001,intercalated ion,,True,-0.0,,-0.001,-0.001
270685,B20Be8Bi4O44,b414c7d1d3,Be2BiB5O11,"['Be', 'B', 'O', 'Bi']",76,758.6528,4.0016,mm2,Pna2_1,33,orthorhombic,-606.9426,-2.7654,-0.0153,intercalated ion,,True,0.0,,-0.0153,-0.0153
283133,B4Ca4Cd8O28P4,bc5e0893ad,CaCd2BPO7,"['B', 'O', 'P', 'Ca', 'Cd']",48,641.5817,4.3345,mm2,Pna2_1,33,orthorhombic,-325.9122,-2.5749,-0.0051,intercalated ion,,True,0.0,,-0.0051,-0.0051
283678,As2B2O7Sr1,bcb2f67930,SrB2As2O7,"['B', 'O', 'As', 'Sr']",12,150.4467,4.0958,32,R32,155,trigonal,-89.2366,-2.5195,-0.0181,intercalated ion,3.8016,True,0.0,,-0.0181,-0.0181
286251,B2Ir2O18Tb6,be62bad657,Tb3BIrO9,"['B', 'O', 'Tb', 'Ir']",28,347.1481,7.8811,6,P6_3,173,hexagonal,-232.4299,-3.0187,-0.0764,3D,0.0995,True,0.0,,-0.0764,-0.0268
294353,B4O16Sr4Tb1Y3,c3d2f13836,Sr4TbY3(BO4)4,"['B', 'O', 'Sr', 'Y', 'Tb']",28,395.6174,4.5136,m,Pm,6,monoclinic,-234.5416,-3.4952,-0.0073,intercalated ion,,True,0.0,,-0.0073,-0.0055
296522,B8Ce1O20Pb3,c53973770f,CeB8Pb3O20,"['B', 'O', 'Ce', 'Pb']",32,307.6172,6.306,1,P1,1,triclinic,-249.3246,-2.4956,-0.0124,3D,0.0016,True,0.0,,-0.0124,-0.0124
305688,B4Ca4Lu1O16Sc3,cb5330a076,Ca4LuSc3(BO4)4,"['B', 'O', 'Ca', 'Sc', 'Lu']",28,337.9162,3.7808,m,Pm,6,monoclinic,-236.0444,-3.5221,-0.0056,intercalated ion,4.2559,True,0.0,,-0.0056,-0.0042
311099,B3Cd5F1O9,cee8bcce26,Cd5B3O9F,"['B', 'O', 'F', 'Cd']",18,226.1437,5.5621,m,Cm,8,monoclinic,-109.401,-2.1281,-0.003,3D,1.5936,True,0.0,,-0.003,-0.003
317734,B10Cd1La2O19,d3467c2a9a,La2CdB10O19,"['B', 'O', 'Cd', 'La']",32,337.1654,3.9514,2,C2,5,monoclinic,-267.4871,-2.9965,-0.0039,3D,4.5472,True,0.0,,-0.0039,-0.0035
327862,B10Ba6Mg2O28P2,da0f194ac4,Ba3MgB5PO14,"['B', 'O', 'Mg', 'P', 'Ba']",48,627.1119,3.947,mm2,Pmn2_1,31,orthorhombic,-381.0574,-3.1287,-0.0103,intercalated ion,5.2215,False,0.0,,-0.0103,-0.0103
333021,B2O20Pm8Si2,dd859e5adb,Pm4SiBO10,"['B', 'O', 'Si', 'Pm']",32,433.5439,5.9665,2,P2_1,4,monoclinic,-273.6875,-3.5161,-0.0681,3D,0.3426,True,0.0,,-0.0681,-0.0129
334036,As2B2O7Sr1,de2f2cfb5b,SrB2As2O7,"['B', 'O', 'As', 'Sr']",12,150.1121,4.1049,32,R32,155,trigonal,-89.2368,-2.5195,-0.0181,intercalated ion,3.7923,True,0.0,,-0.0181,-0.0181
348215,B20Be8O44Tm4,e7a18354c2,TmBe2B5O11,"['Be', 'B', 'O', 'Tm']",76,758.6528,3.651,mm2,Pna2_1,33,orthorhombic,-634.5881,-3.0983,-0.0223,intercalated ion,,False,0.0,,-0.0223,-0.0223
348316,B2La6O18Tc2,e7b449be88,La3TcBO9,"['B', 'O', 'Tc', 'La']",28,373.056,5.9603,6,P6_3,173,hexagonal,-243.5583,-3.2428,-0.0772,3D,0.5417,True,0.0,,-0.0772,-0.0772
355904,Ac26B8O51,eca214bf14,Ac26B8O51,"['B', 'O', 'Ac']",85,1414.0424,7.9906,1,P1,1,triclinic,-722.8455,-3.646,-0.1289,3D,,True,0.0,,-0.1289,-0.1289
361831,B20Be8Gd4O44,f08e6b3659,GdBe2B5O11,"['Be', 'B', 'O', 'Gd']",76,758.6528,3.5487,mm2,Pna2_1,33,orthorhombic,-672.2298,-3.0872,-0.0269,intercalated ion,,True,0.0,,-0.0269,-0.0021
367200,B18Na2O30Pb2,f420fcaa65,NaB9PbO15,"['B', 'O', 'Na', 'Pb']",52,603.0185,3.1254,3m,R3c,161,trigonal,-421.4026,-2.7434,-0.0111,intercalated ion,,True,0.0,,-0.0111,-0.0111
369926,B20Be8O44Tm2Y2,f608caeaa9,YTmBe4(B5O11)2,"['Be', 'B', 'O', 'Y', 'Tm']",76,753.9559,3.3212,2,P2_1,4,monoclinic,-638.3911,-3.096,-0.0111,intercalated ion,inf,True,0.0,,-0.0111,-0.0111
375240,B2Br2F8O4,f98eb6feee,BBr(OF2)2,"['B', 'O', 'F', 'Br']",16,250.8074,2.6312,m,Cc,9,monoclinic,-82.0772,-1.8976,-0.0213,0D,2.2416,False,0.0,,-0.0213,-0.02
378188,B4Cs1Li4O30P8Rb3,fb7b3cf865,CsRb3Li4B4(P4O15)2,"['Li', 'B', 'O', 'P', 'Rb', 'Cs']",50,733.9421,2.688,1,P1,1,triclinic,-367.6401,-2.7541,-0.0052,intercalated ion,,True,0.0,,-0.0052,-0.004
381225,B18Na2O30Sr2,fd8a36a9e2,NaSr(B3O5)3,"['B', 'O', 'Na', 'Sr']",52,599.9991,2.4792,3m,R3c,161,trigonal,-426.4138,-2.9176,-0.0079,intercalated ion,5.6533,True,0.0,,-0.0079,-0.0079
382122,As5B1Ca5O20Sr1,fe21604243,SrCa5B(AsO4)5,"['B', 'O', 'Ca', 'As', 'Sr']",32,474.2783,3.4781,1,P1,1,triclinic,-224.6237,-2.6241,-0.0031,intercalated ion,3.6236,True,0.0,,-0.0031,-0.0031
384226,B6Ba10H2O18,ff949b02f4,Ba5B3HO9,"['H', 'B', 'O', 'Ba']",36,619.6697,4.6309,222,C222_1,20,orthorhombic,-261.7806,-2.9629,-0.0236,intercalated ion,3.7092,True,0.0,,-0.0236,-0.0236