Unnamed: 0,Composition,MaterialId,Reduced Formula,Elements,NSites,Volume,Density,Point Group,Space Group,Space Group Number,Crystal System,Corrected Energy,Formation Energy Per Atom,Decomposition Energy Per Atom,Dimensionality Cheon,Bandgap,Is Train,Decomposition Energy Per Atom All,Decomposition Energy Per Atom Relative,Decomposition Energy Per Atom MP,Decomposition Energy Per Atom MP OQMD
276248,F24Li2Na6Ru4,b7d272c8fe,Na3LiRu2F12,"['Li', 'F', 'Na', 'Ru']",36,514.5895,3.2658,-42m,P-42_1c,114,tetragonal,-187.3601,-2.5732,-0.106,intercalated ion,0.0912,True,0.0,,-0.106,-0.0734
276263,F34P1Te1,b7d540875e,TePF34,"['F', 'P', 'Te']",36,693.8884,1.9253,1,P1,1,triclinic,-117.5877,-1.2234,-0.2719,0D,,True,0.0,,-0.2719,-0.2719
276616,Ce1F12Tb3,b80b71848d,Tb3CeF12,"['F', 'Ce', 'Tb']",16,209.2294,6.7053,m,Pm,6,monoclinic,-113.8525,-4.4424,-0.0146,3D,0.0828,True,0.0,,-0.0146,-0.0077
276795,Ac3F28La1Ru4,b829dfc93a,Ac3LaRu4F28,"['F', 'Ru', 'La', 'Ac']",36,629.6091,4.6317,1,P1,1,triclinic,-221.6613,-3.1595,-0.0862,3D,0.0001,True,0.0,,-0.0862,-0.0418
276805,F20Nb1Pu3,b82c2ea808,Pu3NbF20,"['F', 'Nb', 'Pu']",24,449.6573,4.4495,2,C2,5,monoclinic,-173.8411,-3.4461,-0.231,0D,0.0669,True,0.0,,-0.231,-0.23
276907,F28Pb1Y4Zr3,b83dae5966,Y4Zr3PbF28,"['F', 'Y', 'Zr', 'Pb']",36,569.0457,3.9933,1,P1,1,triclinic,-251.8242,-3.9745,-0.0136,3D,,True,0.0,,-0.0136,-0.0134
277135,F28Hf3Tb4Zr1,b862dc7986,Tb4Hf3ZrF28,"['F', 'Zr', 'Tb', 'Hf']",36,561.1484,5.3098,1,P1,1,triclinic,-265.5218,-4.3068,-0.0049,3D,,True,0.0,,-0.0049,-0.0032
277251,F9Ga3Zn2,b87796833d,Zn2Ga3F9,"['F', 'Zn', 'Ga']",14,230.1861,3.6861,1,P1,1,triclinic,-64.1023,-2.5211,-0.0101,3D,3.5507,True,0.0,,-0.0101,-0.007
277611,Ac2F14Ru1Ti1,b8b6c51956,Ac2TiRuF14,"['F', 'Ti', 'Ru', 'Ac']",18,309.5058,4.6618,1,P1,1,triclinic,-117.579,-3.6337,-0.0956,3D,,True,0.0,,-0.0956,-0.04
278027,F28La1Tb3Zr4,b8fdbffa3c,LaTb3Zr4F28,"['F', 'Zr', 'La', 'Tb']",36,589.5721,4.2601,1,P1,1,triclinic,-259.2207,-4.2408,-0.0032,3D,6.0018,False,0.0,,-0.0032,-0.0013
278857,F7K1,b99229085e,KF7,"['F', 'K']",8,142.9577,1.9989,1,P1,1,triclinic,-23.4697,-1.1224,-0.2995,intercalated ion,2.2996,True,0.0,,-0.2995,-0.1175
279207,F28Nb1Tb4Zr3,b9cacbed44,Tb4Zr3NbF28,"['F', 'Zr', 'Nb', 'Tb']",36,568.4123,4.4821,1,P1,1,triclinic,-256.404,-4.1278,-0.0028,3D,0.2799,True,0.0,,-0.0028,-0.0014
279444,F28La4Ru1Zr3,b9f1db9568,La4Zr3RuF28,"['F', 'Zr', 'Ru', 'La']",36,619.8862,3.9172,1,P1,1,triclinic,-251.2026,-3.9728,-0.0134,3D,,True,0.0,,-0.0134,-0.0109
279815,Cs3F3O3Te1,ba324da315,Cs3Te(OF)3,"['O', 'F', 'Te', 'Cs']",10,227.6782,4.6044,3,R3,146,trigonal,-49.3406,-2.2933,-0.0306,intercalated ion,2.5011,False,0.0,,-0.0306,-0.0301
280118,Br1Cl1F36,ba5fbbe021,BrClF36,"['F', 'Cl', 'Br']",38,674.3739,1.9681,1,P1,1,triclinic,-97.6909,-0.6682,-0.3058,0D,,True,0.0,,-0.3058,-0.2978
280390,F3Ge1K1Pm2,ba8e3d7821,KPm2GeF3,"['F', 'K', 'Ge', 'Pm']",7,153.4248,4.9649,m,Pm,6,monoclinic,-39.8966,-2.7188,-0.1375,intercalated ion,,False,0.0,,-0.1375,-0.0516
280448,Ca9F1Si6Y1,ba9711d9a6,Ca9YSi6F,"['F', 'Si', 'Ca', 'Y']",17,425.6873,2.4853,m,Cm,8,monoclinic,-73.3608,-0.8459,-0.0077,intercalated ion,0.0277,True,-0.0,,-0.0077,-0.0075
280787,F12Ga5Na12O32P8V3,bad79f1b19,Na12V3Ga5P8(O8F3)4,"['O', 'F', 'Na', 'P', 'V', 'Ga']",72,920.9891,3.1824,1,P1,1,triclinic,-481.2828,-2.7561,-0.0095,intercalated ion,,True,0.0,,-0.0095,-0.0004
281264,Ag6F18Ga3,bb2d805629,GaAg2F6,"['F', 'Ga', 'Ag']",27,398.5552,4.9928,32,P321,150,trigonal,-116.4682,-2.0734,-0.0174,3D,0.0037,True,0.0,,-0.0174,-0.0161
281385,Ag1Au1F34,bb4379c527,AgAuF34,"['F', 'Ag', 'Au']",36,641.3929,2.4615,1,P1,1,triclinic,-94.0351,-0.6372,-0.3024,0D,,True,0.0,,-0.3024,-0.2854
281760,F14Hf2Np2,bb81cc370d,HfNpF7,"['F', 'Hf', 'Np']",18,309.153,5.892,2,P2_1,4,monoclinic,-145.1286,-4.031,-0.0501,3D,0.1514,True,0.0,,-0.0501,-0.0492
281879,F20K2Tb2Y4,bb95231ca5,KTbY2F10,"['F', 'K', 'Y', 'Tb']",28,403.2964,4.6594,mm2,Imm2,44,orthorhombic,-195.3033,-4.2757,0.0,,,,0.0,,0.0,0.0
282028,F28La4Ru2Zr2,bbab282f23,La2ZrRuF14,"['F', 'Zr', 'Ru', 'La']",36,616.3255,3.9664,2,P2_1,4,monoclinic,-242.0034,-3.6971,-0.0245,3D,0.1113,True,0.0,,-0.0245,-0.0214
282031,F20Mg2Sr2V4,bbac131c5a,SrMgV2F10,"['F', 'Mg', 'V', 'Sr']",28,412.863,3.2481,mm2,Fdd2,43,orthorhombic,-181.1929,-3.5731,-0.0006,intercalated ion,2.309,True,0.0,,-0.0006,-0.0006
282057,Ce1F14Ru2Tb1,bbb14555bb,TbCeRu2F14,"['F', 'Ru', 'Ce', 'Tb']",18,267.8859,4.7554,1,P1,1,triclinic,-112.0714,-3.1219,-0.0299,3D,,False,0.0,,-0.0299,-0.0278
282761,F12Gd3Y1,bc21d9890b,Gd3YF12,"['F', 'Y', 'Gd']",16,210.3603,6.2253,m,Pm,6,monoclinic,-142.1078,-4.4047,-0.2131,3D,4.5123,True,0.0,,-0.2131,-0.0017
283212,F34Sr8Y6,bc6a7e4679,Sr4Y3F17,"['F', 'Sr', 'Y']",48,677.2039,4.6107,1,P1,1,triclinic,-325.8369,-4.3444,-0.0141,intercalated ion,,True,0.0,,-0.0141,-0.0141
283363,F20Pu4,bc8286ea60,PuF5,"['F', 'Pu']",24,510.9417,4.4068,222,P2_12_12_1,19,orthorhombic,-178.4121,-3.463,-0.2953,1D,0.0009,False,0.0,,-0.2953,-0.294
283475,F34N1Te1,bc9502c55a,TeNF34,"['N', 'F', 'Te']",36,670.1821,1.9514,1,P1,1,triclinic,-106.7516,-0.8412,-0.3489,intercalated ion,,True,0.0,,-0.3489,-0.288
283792,F6H1K1,bcc50c333d,KHF6,"['H', 'F', 'K']",8,128.5792,1.9901,1,P1,1,triclinic,-27.8726,-1.4876,-0.2079,intercalated ion,2.4521,False,0.0,,-0.2079,-0.053
283894,Cs2F24K6,bcd8812858,CsK3F12,"['F', 'K', 'Cs']",32,600.7447,2.6435,2,P2_1,4,monoclinic,-111.443,-1.7848,-0.1952,intercalated ion,1.1169,True,0.0,,-0.1952,-0.0335
284241,Ba4F20Rh4,bd0d36e551,BaRhF5,"['F', 'Rh', 'Ba']",28,428.7712,5.193,222,P2_12_12_1,19,orthorhombic,-156.4525,-2.8961,-0.0591,intercalated ion,1.5889,True,0.0,,-0.0591,-0.059
285162,F12Rh2Sr1,bdaebab7be,SrRh2F12,"['F', 'Sr', 'Rh']",15,247.5744,3.4972,1,P1,1,triclinic,-72.7057,-2.2233,-0.0075,intercalated ion,0.0008,True,0.0,,-0.0075,-0.0014
285679,As1F12Pd1Sb1,be01e68b82,SbAsPdF12,"['F', 'As', 'Pd', 'Sb']",15,245.0929,3.5982,1,P1,1,triclinic,-71.3431,-2.2958,-0.0289,intercalated ion,,False,0.0,,-0.0289,-0.0205
285751,F8O4Rb4Ru2,be0bfba1fd,Rb2Ru(OF2)2,"['O', 'F', 'Rb', 'Ru']",18,321.2227,3.9287,mm2,Ama2,40,orthorhombic,-98.9078,-2.2974,-0.0424,intercalated ion,0.5156,True,0.0,,-0.0424,-0.0254
286025,Cs3F4Nb8O10,be39e5ec2e,Cs3Nb8(O5F2)2,"['O', 'F', 'Nb', 'Cs']",25,421.7545,5.4253,4mm,P4mm,99,tetragonal,-207.5366,-2.6766,-0.0197,intercalated ion,0.0025,True,0.0,,-0.0197,-0.0051
286074,Ag4F24Na4V4,be42b4ceff,NaVAgF6,"['F', 'Na', 'V', 'Ag']",36,555.8507,3.5346,222,P2_12_12_1,19,orthorhombic,-195.9419,-2.6975,-0.0545,intercalated ion,1.5763,False,0.0,,-0.0545,-0.039
286293,F20Rb4Rh4,be68783452,RbRhF5,"['F', 'Rb', 'Rh']",28,495.0318,3.8021,mm2,Pmc2_1,26,orthorhombic,-134.802,-2.2569,-0.0312,intercalated ion,0.0013,True,0.0,,-0.0312,-0.0081
287029,Ce2F22Hf3Sb1,bee58e31d2,Ce2Hf3SbF22,"['F', 'Sb', 'Ce', 'Hf']",28,442.8478,5.0824,m,Cm,8,monoclinic,-198.997,-3.9671,-0.0028,3D,0.1099,True,0.0,,-0.0028,-0.0027
287065,F30Gd1Pd2Y1Zr4,beea43bdde,GdYZr4Pd2F30,"['F', 'Y', 'Zr', 'Pd', 'Gd']",38,517.9904,4.4683,2,C2,5,monoclinic,-253.7654,-3.456,-0.0106,3D,,True,-0.0,,-0.0106,-0.0097
287110,F14Hf2Pu2,bef2c6f338,PuHfF7,"['F', 'Hf', 'Pu']",18,309.1726,5.9669,2,P2_1,4,monoclinic,-149.017,-4.1003,-0.039,3D,0.0004,True,-0.0,,-0.039,-0.039
287491,F28Pd3Pt1Tb4,bf3077246a,Tb4Pd3PtF28,"['F', 'Pd', 'Tb', 'Pt']",36,524.6354,5.3238,1,P1,1,triclinic,-197.3826,-2.8809,-0.0365,3D,1.3158,False,0.0,,-0.0365,-0.0365
287614,F28Ru1Y4Zr3,bf47c3462a,Y4Zr3RuF28,"['F', 'Y', 'Zr', 'Ru']",36,559.9127,3.7437,1,P1,1,triclinic,-256.2229,-3.9422,-0.0111,3D,0.1229,False,0.0,,-0.0111,-0.0099
287826,F10Sn1,bf696bc9d8,SnF10,"['F', 'Sn']",11,191.6537,2.6746,1,P1,1,triclinic,-39.2652,-1.4674,-0.2358,intercalated molecule,2.679,True,0.0,,-0.2358,-0.2357
287974,B2Ba2Br2F8,bf81e95d65,BaBBrF4,"['B', 'F', 'Br', 'Ba']",14,257.3759,3.9232,mm2,Pmn2_1,31,orthorhombic,-82.5495,-3.3419,-0.0039,intercalated ion,4.9119,True,0.0,,-0.0039,-0.0003
288494,F24Pu1Rh3,bfdb2d6db8,PuRh3F24,"['F', 'Rh', 'Pu']",28,461.8328,3.6267,m,Pm,6,monoclinic,-138.7803,-2.0194,-0.1341,0D,,False,0.0,,-0.1341,-0.1326
288715,F24I1Np3,c0004fdd4f,Np3IF24,"['F', 'I', 'Np']",28,570.0823,3.7688,m,Pm,6,monoclinic,-171.9423,-3.0607,-0.0059,0D,0.4972,True,0.0,,-0.0059,-0.0054
289095,F2Na6O18Pb1Si6Sn1,c04211f0c7,Na6Si6SnPb(O9F)2,"['O', 'F', 'Na', 'Si', 'Sn', 'Pb']",34,464.5707,3.4255,2,C2,5,monoclinic,-235.4569,-2.7753,-0.0036,intercalated ion,,True,0.0,,-0.0036,-0.0033
289833,F1La1O18Pt6Sr3,c0bea5cdc1,Sr3LaPt6O18F,"['O', 'F', 'Sr', 'La', 'Pt']",29,399.5988,7.8093,3,R3,146,trigonal,-190.8183,-1.8418,-0.1195,intercalated ion,0.001,True,0.0,,-0.1195,-0.0976
289915,F28Hf3Lu4Zr1,c0cb9af13d,Lu4Hf3ZrF28,"['F', 'Zr', 'Lu', 'Hf']",36,516.1776,5.9788,1,P1,1,triclinic,-264.9036,-4.3022,-0.001,3D,,True,0.0,,-0.001,-0.0004
290415,F28In1La4Pt3,c1254d29a0,La4InPt3F28,"['F', 'In', 'La', 'Pt']",36,604.3887,4.9115,1,P1,1,triclinic,-204.0313,-3.05,-0.0514,3D,2.5263,True,0.0,,-0.0514,-0.0513
290624,Al1F7H4,c14a8390e9,AlH4F7,"['H', 'F', 'Al']",12,129.0025,2.1111,1,P1,1,triclinic,-60.3725,-2.473,-0.0528,3D,7.4734,True,0.0,,-0.0528,-0.0369
290664,F28Re4Tm3Y1,c150732ad5,YTm3Re4F28,"['F', 'Y', 'Tm', 'Re']",36,524.3049,5.9304,1,P1,1,triclinic,-242.1428,-3.3041,-0.153,3D,1.6451,True,0.0,,-0.153,-0.0228
290852,F7H6K1,c16c43ce16,KH6F7,"['H', 'F', 'K']",14,166.6755,1.7747,1,P1,1,triclinic,-63.1677,-2.0229,-0.0432,intercalated ion,7.335,True,0.0,,-0.0432,-0.0138
290870,F28Pt1Ru3Y4,c16f3369a2,Y4Ru3PtF28,"['F', 'Y', 'Ru', 'Pt']",36,531.8056,4.3273,1,P1,1,triclinic,-223.2655,-3.0551,-0.0184,3D,0.0015,True,0.0,,-0.0184,-0.0184
290902,F20Mo3Ta1,c173d8f14b,TaMo3F20,"['F', 'Mo', 'Ta']",24,404.2178,3.4866,2,C2,5,monoclinic,-151.5975,-2.8739,-0.0022,0D,2.1619,True,0.0,,-0.0022,-0.0021
291107,F28Gd4Sn1Tc3,c199deb756,Gd4Tc3SnF28,"['F', 'Tc', 'Sn', 'Gd']",36,571.7616,4.5703,1,P1,1,triclinic,-267.0167,-3.3894,-0.167,3D,,True,0.0,,-0.167,-0.0721
291275,F4O4Ti3,c1b91cd31e,Ti3(OF)4,"['O', 'F', 'Ti']",11,154.7352,3.0434,1,P1,1,triclinic,-90.6852,-3.5965,-0.0097,3D,,True,0.0,,-0.0097,-0.0097
291366,F28Pd1Pt3Tb4,c1cb97f883,Tb4PdPt3F28,"['F', 'Pd', 'Tb', 'Pt']",36,529.4032,5.832,1,P1,1,triclinic,-200.1993,-2.9097,-0.0131,3D,1.3117,True,0.0,,-0.0131,-0.0131
291472,F20Nb3Pu1,c1dff22a7f,PuNb3F20,"['F', 'Nb', 'Pu']",24,413.946,3.6211,m,Cm,8,monoclinic,-164.1244,-3.3885,-0.0785,0D,0.0012,True,0.0,,-0.0785,-0.0782
292079,Cd1F12Sb1V1,c24f9ab9f9,VCdSbF12,"['F', 'V', 'Cd', 'Sb']",15,247.093,3.4481,1,P1,1,triclinic,-77.578,-2.7003,-0.0514,intercalated ion,,True,-0.0,,-0.0514,-0.0505
292479,F20Nb2Os1Tc1,c29284e7e3,Nb2TcOsF20,"['F', 'Nb', 'Tc', 'Os']",24,418.3089,3.3901,1,P1,1,triclinic,-146.8757,-2.7856,-0.0173,1D,0.2818,True,0.0,,-0.0173,-0.0168
292863,F8Os1,c2d448800d,OsF8,"['F', 'Os']",9,131.0079,4.3376,1,P1,1,triclinic,-44.3245,-1.9784,-0.3642,intercalated ion,0.0006,True,0.0,,-0.3642,-0.3638
293204,Ba1F12V2,c30e194d95,BaV2F12,"['F', 'V', 'Ba']",15,261.3431,2.9685,1,P1,1,triclinic,-89.9823,-3.1305,-0.0525,intercalated ion,,True,0.0,,-0.0525,-0.0524
293219,F24Li2Na6W4,c31025d913,Na3Li(WF6)2,"['Li', 'F', 'Na', 'W']",36,532.6118,4.1876,-42m,P-42_1c,114,tetragonal,-216.2597,-2.9666,-0.1436,intercalated ion,3.7502,True,-0.0,,-0.1436,-0.1349
293351,Ca1F12Nb1Ru1,c329048bce,CaNbRuF12,"['F', 'Ca', 'Nb', 'Ru']",15,269.4646,2.8472,1,P1,1,triclinic,-90.103,-3.0523,-0.0563,intercalated ion,1.2922,True,0.0,,-0.0563,-0.0563
293451,F24Pt3Re1,c33b994ce4,RePt3F24,"['F', 'Re', 'Pt']",28,445.6798,4.5732,m,Pm,6,monoclinic,-125.3128,-1.7421,-0.005,0D,0.0011,True,0.0,,-0.005,-0.0024
293897,F24Pd1Pt3,c38295e3b7,PdPt3F24,"['F', 'Pd', 'Pt']",28,427.8393,4.4542,m,Pm,6,monoclinic,-108.4008,-1.3976,-0.0355,0D,,True,-0.0,,-0.0355,-0.0024
294224,Ce1F30Np6Tb1,c3bafa8e2b,TbCeNp6F30,"['F', 'Ce', 'Tb', 'Np']",38,607.4653,6.2626,2,C2,5,monoclinic,-300.4018,-4.0738,-0.113,3D,,True,0.0,,-0.113,-0.1099
294817,Cd2F12In2Na2,c41c7ab57c,NaCdInF6,"['F', 'Na', 'Cd', 'In']",18,261.47,4.626,4mm,P4_2nm,102,tetragonal,-82.7751,-2.7686,-0.0078,intercalated ion,,True,0.0,,-0.0078,-0.0075
294829,Ba1F12Rh2,c41e1440bd,BaRh2F12,"['F', 'Rh', 'Ba']",15,264.5142,3.5853,1,P1,1,triclinic,-73.1977,-2.2408,-0.0025,intercalated ion,0.0017,False,0.0,,-0.0025,-0.0016
294988,Cs2F21Ga6Na1,c434255881,Cs2NaGa6F21,"['F', 'Na', 'Ga', 'Cs']",30,472.7267,3.8854,2,C2,5,monoclinic,-151.547,-3.0041,-0.0221,intercalated ion,4.8148,True,0.0,,-0.0221,-0.0205
295292,F24Na4Rb4Zr4,c468ea7a5e,RbNaZrF6,"['F', 'Na', 'Rb', 'Zr']",36,645.9364,3.2255,mm2,Pna2_1,33,orthorhombic,-220.9388,-3.6567,-0.0095,intercalated ion,,True,0.0,,-0.0095,-0.0092
295447,F14Pb2Tb2,c4826bb7a2,TbPbF7,"['F', 'Tb', 'Pb']",18,294.9856,5.6192,2,P2_1,4,monoclinic,-101.8663,-3.2451,-0.0378,3D,2.7784,True,0.0,,-0.0378,-0.0377
295512,F24I2Ru1Tc1,c48db405e4,TcRu(IF12)2,"['F', 'Tc', 'Ru', 'I']",28,485.0625,3.1113,m,Pm,6,monoclinic,-123.8727,-1.9755,-0.0167,0D,0.0009,True,0.0,,-0.0167,-0.0127
295554,F34P1Ta1,c497d02c60,TaPF34,"['F', 'P', 'Ta']",36,693.8884,2.053,1,P1,1,triclinic,-130.8187,-1.3488,-0.2662,0D,,True,0.0,,-0.2662,-0.2662
295938,F12Mg1Ru1V1,c4d8070c52,MgVRuF12,"['F', 'Mg', 'V', 'Ru']",15,223.4768,3.0041,1,P1,1,triclinic,-83.7498,-2.7236,-0.0269,1D,1.2583,True,0.0,,-0.0269,-0.0268
296093,F20Nb1Ru1Sb2,c4ef840bbb,NbSb2RuF20,"['F', 'Nb', 'Ru', 'Sb']",24,422.7897,3.2107,1,P1,1,triclinic,-129.266,-2.6418,-0.0019,1D,0.8693,True,-0.0,,-0.0019,-0.0013
296508,C2F2O6Tm1Y1,c53829149a,YTmC2(O3F)2,"['C', 'O', 'F', 'Y', 'Tm']",12,186.5839,3.701,m,Pm,6,monoclinic,-100.3853,-3.1232,-0.097,3D,4.7034,True,0.0,,-0.097,-0.0935
297175,F28Re1Y4Zr3,c5a7d94d55,Y4Zr3ReF28,"['F', 'Y', 'Zr', 'Re']",36,562.9688,3.9745,1,P1,1,triclinic,-261.0723,-3.9888,-0.0122,3D,1.8074,True,-0.0,,-0.0122,-0.0108
297243,F36K5O16P4Rb11Ti8,c5b4214379,K5Rb11Ti8P4(O4F9)4,"['O', 'F', 'P', 'K', 'Ti', 'Rb']",80,1306.2725,3.2828,1,P1,1,triclinic,-516.9619,-3.3478,-0.0189,intercalated ion,,True,-0.0,,-0.0189,-0.0038
297425,Ce1F12Tb1Y2,c5d4ac38fb,TbCeY2F12,"['F', 'Y', 'Ce', 'Tb']",16,207.8661,5.6306,m,Pm,6,monoclinic,-117.2563,-4.4261,-0.0182,3D,0.0851,True,0.0,,-0.0182,-0.0113
298071,Ce7F30Pt1,c64227d8a2,Ce7PtF30,"['F', 'Ce', 'Pt']",38,629.2551,4.6071,32,R32,155,trigonal,-251.5739,-3.8586,-0.0155,3D,0.0412,True,-0.0,,-0.0155,-0.0155
298572,Al3F4Ga1O12Te4,c696a06d6e,Al3GaTe4(O3F)4,"['O', 'F', 'Al', 'Ga', 'Te']",24,306.3651,5.0356,1,P1,1,triclinic,-152.7107,-2.4521,-0.013,3D,3.859,True,0.0,,-0.013,-0.013
299101,F28Pt4Tb3Y1,c6eebc71f3,Tb3YPt4F28,"['F', 'Y', 'Tb', 'Pt']",36,529.376,5.8908,1,P1,1,triclinic,-203.2582,-2.919,-0.001,3D,2.3429,True,0.0,,-0.001,-0.001
299159,F24Li2Na6Pd4,c6f8af61f2,Na3LiPd2F12,"['Li', 'F', 'Na', 'Pd']",36,510.704,3.3603,-42m,P-42_1c,114,tetragonal,-162.8324,-2.3468,-0.0033,intercalated ion,2.1793,False,0.0,,-0.0033,-0.0016
299474,As2F16Ru1Sb1,c732be8c6b,SbAs2RuF16,"['F', 'As', 'Ru', 'Sb']",20,330.0002,3.4048,m,Pm,6,monoclinic,-100.9883,-2.3841,-0.0024,1D,1.092,False,0.0,,-0.0024,-0.0004
299600,Cu2F8Rb1,c743916686,RbCu2F8,"['F', 'Cu', 'Rb']",11,176.1823,3.4359,2,C2,5,monoclinic,-45.1676,-1.8815,-0.2082,intercalated ion,,True,-0.0,,-0.2082,-0.0245
299809,F20Pu3Ta1,c768451165,Pu3TaF20,"['F', 'Ta', 'Pu']",24,438.1086,4.9005,2,C2,5,monoclinic,-176.9044,-3.5006,-0.2314,0D,0.0563,True,0.0,,-0.2314,-0.2304
300040,F30Hf2Lu2Pt2Zr2,c79182f091,LuHfZrPtF15,"['F', 'Zr', 'Lu', 'Hf', 'Pt']",38,493.5859,6.2221,2,C2,5,monoclinic,-249.7047,-3.5307,-0.0096,3D,,True,0.0,,-0.0096,-0.0096
300058,F20Pu3V1,c795b16613,Pu3VF20,"['F', 'V', 'Pu']",24,447.5716,4.3145,1,P1,1,triclinic,-169.727,-3.3171,-0.2397,1D,,True,0.0,,-0.2397,-0.2387
300348,As2F36K16O16P2Ti8,c7c67343b9,K8Ti4AsP(O4F9)2,"['O', 'F', 'P', 'K', 'Ti', 'As']",80,1306.2725,2.7461,2,P2_1,4,monoclinic,-510.1983,-3.2643,-0.0099,intercalated ion,,True,0.0,,-0.0099,-0.0099
300564,F12Mg1Os1Ta1,c7eb343fe1,MgTaOsF12,"['F', 'Mg', 'Ta', 'Os']",15,236.0396,4.3861,1,P1,1,triclinic,-93.5007,-3.0585,-0.0452,1D,1.3708,True,0.0,,-0.0452,-0.0451
300698,F24Pt3Ru1,c807a48ffc,RuPt3F24,"['F', 'Ru', 'Pt']",28,447.4225,4.2394,m,Pm,6,monoclinic,-117.4124,-1.5732,-0.0019,0D,,False,0.0,,-0.0019,-0.0002
301152,F3S24Si1,c85692c03d,Si(S8F)3,"['F', 'Si', 'S']",28,936.2762,1.5158,3m,R3m,160,trigonal,-133.6027,-0.8274,-0.335,0D,1.333,True,0.0,,-0.335,-0.335
301286,F24Li2Na6V4,c871308d0d,Na3LiV2F12,"['Li', 'F', 'Na', 'V']",36,496.7674,2.7128,-42m,P-42_1c,114,tetragonal,-206.6982,-3.1315,-0.0658,intercalated ion,2.1463,True,0.0,,-0.0658,-0.03
301328,F12K3Rb1,c8777a30b8,K3RbF12,"['F', 'K', 'Rb']",16,296.5662,2.4118,1,P1,1,triclinic,-56.527,-1.8298,-0.1417,intercalated ion,2.1954,False,0.0,,-0.1417,-0.0561
301480,Ce1F20Rb2Y5,c89051d986,Rb2CeY5F20,"['F', 'Rb', 'Y', 'Ce']",28,416.1597,4.531,4mm,I4mm,107,tetragonal,-197.2681,-4.2433,-0.0384,intercalated ion,0.2302,True,0.0,,-0.0384,-0.0026
302233,F28Ir1La4V3,c90f6d0d1f,La4V3IrF28,"['F', 'V', 'La', 'Ir']",36,584.1494,4.0725,1,P1,1,triclinic,-236.4874,-3.5314,-0.0437,3D,,True,-0.0,,-0.0437,-0.0436
302877,F28Pt1Ru3Tm4,c97eaba804,Tm4Ru3PtF28,"['F', 'Ru', 'Tm', 'Pt']",36,510.2608,5.5518,1,P1,1,triclinic,-216.0556,-3.076,-0.179,3D,0.0001,True,0.0,,-0.179,-0.0114
303143,F24Na4Sc4Sr4,c9ab8f0fa7,NaSrScF6,"['F', 'Na', 'Sc', 'Sr']",36,568.7064,3.1483,222,P2_12_12_1,19,orthorhombic,-226.9419,-3.9913,-0.0016,intercalated ion,6.9819,True,0.0,,-0.0016,-0.0013
303250,Cs4F20Mo4,c9bce088ae,CsMoF5,"['F', 'Mo', 'Cs']",28,574.2667,3.7456,mm2,Pmc2_1,26,orthorhombic,-166.8747,-2.9172,-0.1442,intercalated ion,,True,0.0,,-0.1442,-0.0093
303643,F12K3Rb3Tb2,c9fb9985c7,K3Rb3Tb2F12,"['F', 'K', 'Rb', 'Tb']",20,409.6407,3.7274,1,P1,1,triclinic,-110.3575,-3.5939,-0.0173,intercalated ion,6.3974,True,-0.0,,-0.0173,-0.0012
303731,Cl2F30,ca0b0027a5,ClF15,"['F', 'Cl']",32,602.5512,1.7661,mm2,Cmc2_1,36,orthorhombic,-81.7817,-0.6481,-0.2858,0D,,True,0.0,,-0.2858,-0.2668
303822,F37Na1,ca1a0b8882,NaF37,"['F', 'Na']",38,679.1686,1.7749,1,P1,1,triclinic,-93.5179,-0.565,-0.4104,intercalated ion,,True,0.0,,-0.4104,-0.4103
304237,F9H3P2,ca5c84abe1,P2H3F9,"['H', 'F', 'P']",14,255.2392,1.5351,1,P1,1,triclinic,-70.7602,-2.3252,-0.0446,0D,5.4948,False,0.0,,-0.0446,-0.0196
305193,F34P1Se1,cb0103db42,PSeF34,"['F', 'P', 'Se']",36,678.1625,1.8508,1,P1,1,triclinic,-115.0564,-1.1432,-0.3683,0D,,True,0.0,,-0.3683,-0.2725
305609,F8K4O4Ru2,cb45fd58c9,K2Ru(OF2)2,"['O', 'F', 'K', 'Ru']",18,293.5326,3.2501,mm2,Cmc2_1,36,orthorhombic,-99.3233,-2.2916,-0.0193,intercalated ion,0.3896,True,-0.0,,-0.0193,-0.0085
305623,F16O2Pu1Sb1,cb48be2b05,PuSb(OF8)2,"['O', 'F', 'Sb', 'Pu']",20,334.6634,3.4819,mm2,Pmm2,25,orthorhombic,-101.1096,-2.1117,-0.2141,0D,,True,0.0,,-0.2141,-0.2047
305667,F28Pt1Tc3Tm3Y1,cb501924b0,YTm3Tc3PtF28,"['F', 'Y', 'Tc', 'Tm', 'Pt']",36,520.6003,5.1569,1,P1,1,triclinic,-227.8317,-3.2573,-0.1731,3D,1.5258,True,0.0,,-0.1731,-0.0447
305714,F12Nb1Sb1Sr1,cb58bccb00,SrNbSbF12,"['F', 'Sr', 'Nb', 'Sb']",15,264.4164,3.3301,1,P1,1,triclinic,-88.2427,-3.2923,-0.0603,intercalated ion,,False,-0.0,,-0.0603,-0.0168
306095,As1C1F14N1,cb991e98e3,AsCNF14,"['C', 'N', 'F', 'As']",17,250.9432,2.428,-4,I-4,82,tetragonal,-79.5178,-1.7962,-0.2511,0D,3.1729,True,0.0,,-0.2511,-0.1222
306410,Ba4F3H9Pd2,cbd2a762bb,Ba4H9Pd2F3,"['H', 'F', 'Pd', 'Ba']",18,268.782,5.1167,2,C2,5,monoclinic,-80.4795,-1.4542,-0.142,intercalated ion,,True,0.0,,-0.142,-0.0581
306427,F8Na2Pu1Sr1,cbd61cc251,Na2SrPuF8,"['F', 'Na', 'Sr', 'Pu']",12,178.7911,4.9186,-42m,I-4m2,119,tetragonal,-78.1472,-3.687,-0.0663,intercalated ion,,False,0.0,,-0.0663,-0.0276
306714,F27O1Tm4V4,cc0907f0d9,Tm4V4OF27,"['O', 'F', 'V', 'Tm']",36,501.9307,4.6596,1,P1,1,triclinic,-242.2249,-3.6508,-0.1883,3D,,True,0.0,,-0.1883,-0.0206
306799,Ce2F22Hf1Zr3,cc17212e23,Ce2HfZr3F22,"['F', 'Zr', 'Ce', 'Hf']",28,452.5317,4.2212,m,Cm,8,monoclinic,-205.7765,-4.1521,-0.0012,3D,0.0769,True,0.0,,-0.0012,-0.0011
307114,F20Nb2Os1Ta1,cc4c79b157,TaNb2OsF20,"['F', 'Nb', 'Ta', 'Os']",24,411.1046,3.7846,1,P1,1,triclinic,-155.6992,-3.0909,-0.0076,1D,1.0591,True,0.0,,-0.0076,-0.0075
307442,F24Hf6K3O2Rb1,cc841f4c12,K3RbHf6(OF12)2,"['O', 'F', 'K', 'Rb', 'Hf']",36,509.0757,5.7463,3m,R3m,160,trigonal,-262.7924,-3.9713,-0.0391,intercalated ion,6.359,True,0.0,,-0.0391,-0.0309