Unnamed: 0,Composition,MaterialId,Reduced Formula,Elements,NSites,Volume,Density,Point Group,Space Group,Space Group Number,Crystal System,Corrected Energy,Formation Energy Per Atom,Decomposition Energy Per Atom,Dimensionality Cheon,Bandgap,Is Train,Decomposition Energy Per Atom All,Decomposition Energy Per Atom Relative,Decomposition Energy Per Atom MP,Decomposition Energy Per Atom MP OQMD
17992,Br4K1La1O12,0c0b7c3e39,KLa(BrO3)4,"['O', 'K', 'Br', 'La']",18,285.067,4.0171,1,P1,1,triclinic,-90.9131,-1.0524,-0.1027,intercalated ion,,True,-0.0,,-0.1027,-0.0805
18009,Ag1Nb3O24P6,0c0da90fe7,Nb3Ag(PO4)6,"['O', 'P', 'Nb', 'Ag']",34,509.7547,3.1155,3,R3,146,trigonal,-273.8366,-2.6314,-0.0211,3D,0.4148,False,0.0,,-0.0211,-0.0206
18014,Ho1Lu4O24W4Y3,0c0e5d8a00,Y3HoLu4(WO6)4,"['O', 'Y', 'Ho', 'Lu', 'W']",36,451.1734,8.2843,2,P2,3,monoclinic,-332.4749,-3.3285,-0.0064,3D,3.6221,True,0.0,,-0.0064,-0.0063
18020,Cl18Li2Rb6V4,0c0ff9fdf4,Rb3LiV2Cl9,"['Li', 'Cl', 'V', 'Rb']",30,755.5381,3.008,3,P3,143,trigonal,-139.4458,-2.0043,-0.0185,intercalated ion,,True,0.0,,-0.0185,-0.0152
18027,Au4Br24Tb3Th1,0c10d95c7b,Tb3Th(AuBr6)4,"['Br', 'Tb', 'Au', 'Th']",32,1156.8612,4.9009,1,P1,1,triclinic,-120.7267,-1.4696,-0.0281,3D,0.001,True,0.0,,-0.0281,-0.0049
18052,F24Hf4In4O2Zr2,0c15ceedd6,Hf2ZrIn2OF12,"['O', 'F', 'Zr', 'In', 'Hf']",36,529.9891,5.7764,m,Cm,8,monoclinic,-254.3524,-3.6292,-0.0395,intercalated ion,,True,0.0,,-0.0395,-0.0167
18059,Ga4K1La1O8,0c16f4dca9,KLa(GaO2)4,"['O', 'K', 'Ga', 'La']",14,201.1557,4.8283,mm2,Imm2,44,orthorhombic,-93.7815,-2.5742,-0.015,intercalated ion,,True,0.0,,-0.015,-0.013
18061,Ac10Cl2In1Pb5,0c1714e75f,Ac10InPb5Cl2,"['Cl', 'In', 'Pb', 'Ac']",18,604.8262,9.5865,mm2,Amm2,38,orthorhombic,-81.383,-0.8422,-0.3709,3D,,True,0.0,,-0.3709,-0.095
18089,O12Ru1Tb5Ti1,0c1b2d8357,Tb5TiRuO12,"['O', 'Ti', 'Ru', 'Tb']",19,256.0671,7.3638,2,C2,5,monoclinic,-165.9251,-3.4846,-0.01,3D,0.0741,True,0.0,,-0.01,-0.0049
18214,Gd4La1Lu1O14Ta2,0c31770b95,LaGd4LuTa2O14,"['O', 'La', 'Gd', 'Lu', 'Ta']",22,307.7563,8.2486,1,P1,1,triclinic,-243.352,-3.8456,-0.0097,3D,,True,0.0,,-0.0097,-0.0096
18238,F30Os2Ta4,0c33fe97d4,Ta2OsF15,"['F', 'Ta', 'Os']",36,649.2593,4.2819,m,Pm,6,monoclinic,-237.6459,-3.0671,-0.003,0D,,True,0.0,,-0.003,-0.0029
18271,Al1Ca2O52Pr18Si11,0c39612400,Ca2Pr18AlSi11O52,"['O', 'Al', 'Si', 'Ca', 'Pr']",84,1167.8822,5.3808,1,P1,1,triclinic,-717.2594,-3.6485,-0.0306,intercalated ion,,False,-0.0,,-0.0306,-0.001
18279,Ba3Li6O12Ti3,0c3a062ae5,BaLi2TiO4,"['Li', 'O', 'Ti', 'Ba']",24,332.755,3.9384,32,P3_121,152,trigonal,-172.8275,-3.0231,-0.0125,intercalated ion,4.1764,True,0.0,,-0.0125,-0.0021
18339,C1Cl1Gd1Ho1,0c442dc832,GdHoCCl,"['C', 'Cl', 'Gd', 'Ho']",4,79.4097,7.7296,3m,R3m,160,trigonal,-34.7439,-1.2525,-0.0569,3D,0.0009,True,0.0,,-0.0569,-0.0007
18353,Cl18Ir3Rh1Tl6,0c46f968c9,Tl6Ir3RhCl18,"['Cl', 'Rh', 'Ir', 'Tl']",28,828.5245,5.0987,3m,P3m1,156,trigonal,-113.4181,-1.1462,-0.0132,intercalated ion,,True,0.0,,-0.0132,-0.0057
18406,F14Tm2V2,0c50224a37,TmVF7,"['F', 'V', 'Tm']",18,253.2488,4.6274,2,P2_1,4,monoclinic,-120.3568,-3.6931,-0.19,3D,2.035,True,0.0,,-0.19,-0.0223
18538,Ac3Cl5I1N2Pr1,0c69301f92,Ac3PrIN2Cl5,"['N', 'Cl', 'I', 'Pr', 'Ac']",12,335.3092,5.7154,m,Cm,8,monoclinic,-73.3303,-2.3955,-0.1076,3D,3.5057,True,0.0,,-0.1076,-0.0994
18576,Ba4F24Th3U1,0c6ef9278c,Ba4Th3UF24,"['F', 'Ba', 'Th', 'U']",32,543.883,5.9213,1,P1,1,triclinic,-225.3621,-4.3212,-0.031,intercalated ion,,True,0.0,,-0.031,-0.0252
18597,Ag1Cl2I4Pa1,0c731fc929,PaAg(I2Cl)2,"['Cl', 'Ag', 'I', 'Pa']",8,351.248,4.3372,1,P1,1,triclinic,-33.2511,-1.3888,-0.2215,2D,,True,0.0,,-0.2215,-0.1846
18601,F22Hf4Pr1U1,0c74835f4e,PrHf4UF22,"['F', 'Pr', 'Hf', 'U']",28,439.539,5.7079,222,I222,23,orthorhombic,-214.3346,-4.1565,-0.0213,3D,0.4239,True,0.0,,-0.0213,-0.0211
18621,La1O12Pr4Pt1Ru1,0c77a8abaf,LaPr4RuPtO12,"['O', 'Ru', 'La', 'Pr', 'Pt']",19,291.3022,6.7874,2,C2,5,monoclinic,-155.1504,-2.9668,-0.0202,3D,,True,0.0,,-0.0202,-0.0202
18622,Eu2Ga4O14Pb2Si2,0c77b47e71,EuGa2SiPbO7,"['O', 'Si', 'Ga', 'Eu', 'Pb']",24,351.9955,6.0261,2,P2_1,4,monoclinic,-183.4506,-2.6336,-0.0087,3D,0.0167,False,0.0,,-0.0087,-0.0084
18661,Ba8Ga4Ho3O20Y1,0c7d91e30e,Ba8YHo3(GaO5)4,"['O', 'Ga', 'Y', 'Ba', 'Ho']",36,611.3174,6.1965,1,P1,1,triclinic,-259.5426,-3.1363,-0.0173,intercalated ion,3.5008,True,0.0,,-0.0173,-0.0114
18703,Al1Br6Rh1,0c86c8636a,AlRhBr6,"['Al', 'Br', 'Rh']",8,241.2609,4.1937,2,C2,5,monoclinic,-30.4164,-1.1856,-0.0029,2D,1.6663,True,0.0,,-0.0029,-0.0029
18706,Br12C2Cs2Pr1Sm5,0c8738a45f,Cs2PrSm5(CBr6)2,"['C', 'Br', 'Cs', 'Pr', 'Sm']",22,739.3601,4.8094,1,P1,1,triclinic,-111.0714,-1.9459,-0.1225,intercalated ion,0.686,True,0.0,,-0.1225,-0.0636
18722,Ga6O14Pr2Sr2,0c8adb9c04,SrPrGa3O7,"['O', 'Ga', 'Sr', 'Pr']",24,353.6959,5.1614,mm2,Cmm2,35,orthorhombic,-168.279,-2.8291,-0.0112,intercalated ion,3.2342,True,0.0,,-0.0112,-0.0
18723,Br12C2Cs2Sm1Tb5,0c8afb57b4,Cs2Tb5Sm(CBr6)2,"['C', 'Br', 'Cs', 'Sm', 'Tb']",22,709.4769,5.1343,1,P1,1,triclinic,-110.7247,-1.9521,-0.0433,intercalated ion,0.7124,True,0.0,,-0.0433,-0.0318
18753,Ba4Ga4Ge1O14Si1,0c9057de82,Ba4Ga4SiGeO14,"['O', 'Si', 'Ga', 'Ge', 'Ba']",24,392.3204,4.8798,1,P1,1,triclinic,-166.5314,-2.8093,-0.0136,intercalated ion,,True,0.0,,-0.0136,-0.0119
18792,F20Ta2W2,0c9718feac,TaWF10,"['F', 'Ta', 'W']",24,395.7346,4.6557,1,P1,1,triclinic,-164.0382,-3.174,-0.0198,0D,3.3958,True,0.0,,-0.0198,-0.013
18836,Ba8Cl2O30Sr2Tc6,0c9e1f2e4a,Ba4SrTc3ClO15,"['O', 'Cl', 'Sr', 'Tc', 'Ba']",48,816.6537,4.9059,3m,P31m,157,trigonal,-357.2531,-2.588,-0.3098,,,,0.0,,-0.3098,-0.2206
18854,Br6La1O18Tl1,0ca0eb8d10,LaTl(BrO3)6,"['O', 'Br', 'La', 'Tl']",26,507.4113,3.6349,3,P3,143,trigonal,-125.2885,-0.7348,-0.1155,3D,,True,0.0,,-0.1155,-0.0992
18927,Eu4Ge4O14Zn2,0cad4efc8e,Eu2ZnGe2O7,"['O', 'Zn', 'Ge', 'Eu']",24,364.878,5.7034,-42m,P-42_1m,113,tetragonal,-192.3307,-2.5366,-0.0696,3D,,True,0.0,,-0.0705,-0.0341
18929,Ca9F1Pr1Si6,0cae722264,Ca9PrSi6F,"['F', 'Si', 'Ca', 'Pr']",17,431.4273,2.6524,m,Cm,8,monoclinic,-71.5347,-0.8376,-0.0124,intercalated ion,0.0169,True,0.0,,-0.0124,-0.0123
18936,La1O24Pr7Tc4,0caf7272a8,LaPr7(TcO6)4,"['O', 'Tc', 'La', 'Pr']",36,530.4683,5.9515,1,P1,1,triclinic,-306.8657,-3.0075,-0.1131,3D,0.0051,True,0.0,,-0.1131,-0.1131
18959,Ca1Na4O6Te1,0cb3c59f75,Na4CaTeO6,"['O', 'Na', 'Ca', 'Te']",12,158.4473,3.7271,2,C2,5,monoclinic,-65.9259,-2.1499,-0.0309,intercalated ion,2.2848,True,-0.0,,-0.0309,-0.0303
18979,Au2Br24I6,0cb6ba61ac,Au(IBr4)3,"['Br', 'I', 'Au']",32,1473.6301,3.4628,2,P2_1,4,monoclinic,-72.7562,-0.5556,-0.2479,0D,1.0153,True,0.0,,-0.2479,-0.073
19085,Bi1Ho5O14Ta2,0cc7d545ba,Ho5Ta2BiO14,"['O', 'Ho', 'Ta', 'Bi']",22,301.3219,8.9249,2,C2,5,monoclinic,-199.2274,-3.6108,-0.0066,3D,3.2713,True,0.0,,-0.0066,-0.0066
19108,O8Rb1Sc1Sn3,0ccd11ffd3,RbScSn3O8,"['O', 'Sc', 'Rb', 'Sn']",13,187.2306,5.4504,m,Cm,8,monoclinic,-90.9394,-2.4626,-0.0391,inf,2.0268,True,0.0,,-0.0391,-0.0227
19133,O12Os1V1Y5,0cd0de0827,Y5VOsO12,"['O', 'V', 'Y', 'Os']",19,253.1922,5.7563,2,C2,5,monoclinic,-175.3279,-3.332,-0.0216,3D,0.717,True,0.0,,-0.0216,-0.0216
19136,F28Hf3Ho4Tc1,0cd10c9d59,Ho4Hf3TcF28,"['F', 'Tc', 'Ho', 'Hf']",36,542.8832,5.5827,1,P1,1,triclinic,-259.2848,-4.0889,-0.026,3D,1.7913,True,-0.0,,-0.026,-0.0259
19152,Cd1Cu4O8Y1,0cd3606693,YCd(CuO2)4,"['O', 'Cu', 'Y', 'Cd']",14,157.2632,6.1611,-4,I-4,82,tetragonal,-85.5131,-1.5817,-0.0044,3D,0.0029,True,0.0,,-0.0044,-0.0044
19159,Ir2O13Os1Pb4Ru1,0cd536824f,Ir2OsRuPb4O13,"['O', 'Ru', 'Os', 'Ir', 'Pb']",21,282.7746,10.0565,m,Cm,8,monoclinic,-148.3685,-1.4769,-0.0403,3D,0.0049,True,-0.0,,-0.0403,-0.009
19189,Br1La8Si15Tb12,0cd98ec0e8,La8Tb12Si15Br,"['Si', 'Br', 'La', 'Tb']",36,906.806,6.445,1,P1,1,triclinic,-206.2566,-0.7817,-0.0213,3D,0.0001,True,0.0,,-0.0213,-0.0206
19252,Br35Te1,0ce4ef4af7,TeBr35,"['Br', 'Te']",36,1793.7135,2.7071,1,P1,1,triclinic,-80.2654,-0.5508,-0.4378,0D,,True,0.0,,-0.4378,-0.4377
19266,Bi8O48Pb4Sb8Zn12,0ce749b25d,Zn3Bi2Sb2PbO12,"['O', 'Zn', 'Sb', 'Pb', 'Bi']",80,1103.7152,7.564,2,C2,5,monoclinic,-476.9112,-1.8161,-0.0067,inf,,True,0.0,,-0.0067,-0.0067
19335,Cs4Ge4O12Zn2,0cf52f9fc3,Cs2Zn(GeO3)2,"['O', 'Zn', 'Ge', 'Cs']",22,399.4205,4.7602,222,C222_1,20,orthorhombic,-129.5766,-2.0731,-0.0502,intercalated ion,2.9228,True,-0.0,,-0.0502,-0.0502
19340,Nb2O10Pa2,0cf5f2bcf5,PaNbO5,"['O', 'Nb', 'Pa']",14,207.3956,6.4684,222,P222_1,17,orthorhombic,-138.8705,-3.5828,-0.3185,3D,2.27,True,0.0,,-0.3185,-0.3119
19341,Br12C1Ti4Zr2,0cf6159a9f,Zr2Ti4CBr12,"['C', 'Ti', 'Br', 'Zr']",19,530.3681,4.2104,1,P1,1,triclinic,-107.8714,-1.596,-0.0483,2D,0.1355,True,0.0,,-0.0483,-0.0173
19405,F28Sm1Tc4Tm3,0d0062e683,SmTm3Tc4F28,"['F', 'Tc', 'Sm', 'Tm']",36,527.5791,4.9765,1,P1,1,triclinic,-234.3816,-3.3687,-0.2088,3D,1.5872,True,0.0,,-0.2088,-0.0831
19414,Ho1La2Lu3O14W2,0d01ded4d4,La2HoLu3(WO7)2,"['O', 'La', 'Ho', 'Lu', 'W']",22,294.8281,8.7824,m,Pm,6,monoclinic,-200.8229,-3.5281,-0.0136,3D,,True,0.0,,-0.0136,-0.0102
19423,Ba10Br2O30Ru6,0d032069dd,Ba5Ru3BrO15,"['O', 'Br', 'Ru', 'Ba']",48,809.0385,5.3764,6mm,P6_3cm,185,hexagonal,-331.266,-2.1816,-0.1124,intercalated ion,,True,0.0,,-0.1124,-0.092
19429,C2Cl2Sm2Th2,0d0413bf41,SmThCCl,"['C', 'Cl', 'Sm', 'Th']",8,173.1776,8.2436,6mm,P6_3mc,186,hexagonal,-55.5789,-1.1454,-0.1113,3D,,True,0.0,,-0.1113,-0.0016
19454,Cd1O10Pa3Y1,0d09d1df20,YPa3CdO10,"['O', 'Y', 'Cd', 'Pa']",15,198.0914,8.8389,m,Cm,8,monoclinic,-142.0842,-3.7781,-0.2977,3D,2.6633,True,0.0,,-0.2977,-0.2977
19486,F7Nb4O5,0d0e3fcd47,Nb4O5F7,"['O', 'F', 'Nb']",16,265.5705,3.6554,2,C2,5,monoclinic,-129.5031,-3.1861,-0.0252,3D,0.0029,True,0.0,,-0.0252,-0.0174
19488,La6O20Pr2V4,0d0e531b17,La3PrV2O10,"['O', 'V', 'La', 'Pr']",32,498.5216,5.4594,mm2,Pmc2_1,26,orthorhombic,-284.2354,-3.4301,-0.0065,3D,1.6917,True,0.0,,-0.0065,-0.0056
19502,F20Rb8Sm3Tb1,0d1071189b,Rb8TbSm3F20,"['F', 'Rb', 'Sm', 'Tb']",32,616.2176,4.5102,m,Pm,6,monoclinic,-183.9642,-3.7219,-0.0329,intercalated ion,6.525,True,0.0,,-0.0329,-0.014
19511,F28Hf3Rh1Tb4,0d11ec8f65,Tb4Hf3RhF28,"['F', 'Rh', 'Tb', 'Hf']",36,552.7339,5.4257,1,P1,1,triclinic,-253.057,-3.9934,-0.0117,3D,0.0931,True,0.0,,-0.0117,-0.0097
19534,F28La3U1Zr4,0d15d6b71e,La3Zr4UF28,"['F', 'Zr', 'La', 'U']",36,633.0877,4.0697,1,P1,1,triclinic,-263.9563,-4.1707,-0.0089,3D,0.2211,True,0.0,,-0.0089,-0.0079
19539,Ca3Lu1O12Ti4,0d174ca592,Ca3LuTi4O12,"['O', 'Ca', 'Ti', 'Lu']",20,227.5356,4.9528,m,Pm,6,monoclinic,-173.542,-3.6023,-0.0056,intercalated ion,,True,0.0,,-0.0056,-0.0046
19595,Ca9Ce1F2Sn6,0d20074602,Ca9CeSn6F2,"['F', 'Ca', 'Sn', 'Ce']",18,496.1052,4.1875,m,Cm,8,monoclinic,-74.5629,-1.2611,-0.0182,intercalated ion,0.2016,True,0.0,,-0.0182,-0.0159
19646,Bi2La4O14Sb1Ta1,0d2870b6f4,La4TaBi2SbO14,"['O', 'Sb', 'La', 'Ta', 'Bi']",22,335.2132,7.4319,2,C2,5,monoclinic,-180.5475,-3.0802,-0.0078,3D,2.5991,True,-0.0,,-0.0078,-0.0078
19660,Br1Pr18Si15Sm2,0d2ad941c0,Pr18Sm2Si15Br,"['Si', 'Br', 'Pr', 'Sm']",36,966.1545,5.7375,1,P1,1,triclinic,-203.9003,-0.7053,-0.0142,3D,0.0008,True,0.0,,-0.0142,-0.0105
19723,Eu1F20K2Pu5,0d36158a01,K2EuPu5F20,"['F', 'K', 'Eu', 'Pu']",28,438.7401,6.9267,4mm,I4mm,107,tetragonal,-230.7192,-3.8799,-0.0535,intercalated ion,,True,0.0,,-0.0535,-0.0262
19735,Br2C2Gd3Sm1,0d390ab1c4,SmGd3(CBr)2,"['C', 'Br', 'Sm', 'Gd']",8,175.1671,7.6401,3m,P3m1,156,trigonal,-77.4683,-1.0992,-0.0622,3D,0.0056,True,0.0,,-0.0622,-0.0169
19738,Cl18Na2Pd4,0d391aaaa2,NaPd2Cl9,"['Na', 'Cl', 'Pd']",24,740.1004,2.4901,1,P1,1,triclinic,-80.7496,-1.0046,-0.1074,intercalated ion,,False,0.0,,-0.1074,-0.0021
19743,Br10Ce1Rh1Y5,0d39bca72a,CeY5RhBr10,"['Br', 'Y', 'Rh', 'Ce']",17,574.9641,4.2934,1,P1,1,triclinic,-96.5451,-2.0321,-0.0998,3D,,True,0.0,,-0.0998,-0.079
19778,O19Pr2Pt6Sr2,0d3fd8e401,Sr2Pr2Pt6O19,"['O', 'Sr', 'Pr', 'Pt']",29,394.3334,8.1338,2,C2,5,monoclinic,-195.7995,-1.8077,-0.1315,intercalated ion,0.0011,True,0.0,,-0.1315,-0.1129
19800,B4Br4C8Cl4La12,0d43c85205,La3BC2BrCl,"['B', 'C', 'Cl', 'Br', 'La']",32,697.1895,5.4009,mm2,Pmc2_1,26,orthorhombic,-212.6894,-1.2182,-0.0073,3D,0.0213,False,-0.0,,-0.0073,-0.0007
19920,Ac6Cl2Ga6Zn2,0d565de2a8,Ac3ZnGa3Cl,"['Cl', 'Zn', 'Ga', 'Ac']",16,425.3809,7.7373,mm2,Fmm2,42,orthorhombic,-63.8705,-0.9224,-0.0808,3D,0.0033,True,0.0,,-0.0808,-0.0802
19929,As1Cu3O8P1,0d582f466c,Cu3AsPO8,"['O', 'P', 'Cu', 'As']",13,157.897,4.4646,1,P1,1,triclinic,-82.6493,-1.592,-0.0031,3D,0.181,True,0.0,,-0.0031,-0.0023
19959,O20Os4Sr4,0d5ade6868,SrOsO5,"['O', 'Sr', 'Os']",28,380.6675,6.244,2,P2_1,4,monoclinic,-207.9805,-2.0484,-0.0359,intercalated ion,,True,0.0,,-0.0359,-0.0278
20027,O24P6Se2U2,0d641144f1,UP3SeO12,"['O', 'P', 'Se', 'U']",34,534.5139,3.7398,1,P1,1,triclinic,-268.2219,-2.5711,-0.0118,intercalated ion,0.7544,True,0.0,,-0.0118,-0.0118
20047,Gd1O18Pa5Sr4,0d66821dcd,Sr4GdPa5O18,"['O', 'Sr', 'Gd', 'Pa']",28,441.0148,7.3457,1,P1,1,triclinic,-268.5794,-3.9682,-0.4386,intercalated ion,2.9758,True,0.0,,-0.4386,-0.2637
20106,B2Br15Pr8Sm1Tb1,0d709b260c,TbPr8SmB2Br15,"['B', 'Br', 'Pr', 'Sm', 'Tb']",27,893.6696,4.9365,1,P1,1,triclinic,-135.1626,-1.8389,-0.0269,3D,0.004,True,-0.0,,-0.0269,-0.0269
20120,O24P6Ta3W1,0d72a6a122,Ta3P6WO24,"['O', 'P', 'Ta', 'W']",34,506.2701,4.2525,3,R3,146,trigonal,-298.1968,-2.8951,-0.0305,3D,2.0528,False,0.0,,-0.0305,-0.029
20227,Bi2Eu1O14Sm5,0d823a4aaa,Sm5Eu(BiO7)2,"['O', 'Sm', 'Eu', 'Bi']",22,327.1125,7.8466,1,P1,1,triclinic,-178.2858,-3.0613,-0.0569,3D,,True,0.0,,-0.0569,-0.0465
20236,F28Pr1Tm3W4,0d8472afc0,PrTm3(WF7)4,"['F', 'Pr', 'Tm', 'W']",36,564.6216,5.632,1,P1,1,triclinic,-251.2896,-3.548,-0.2237,3D,,True,0.0,,-0.2237,-0.0866
20265,O4Se3Sm3Tm1,0d8921270d,Sm3TmSe3O4,"['O', 'Se', 'Sm', 'Tm']",11,209.0679,7.3143,mm2,Amm2,38,orthorhombic,-83.6847,-3.1612,-0.0722,3D,1.2356,True,0.0,,-0.0722,-0.0145
20308,F20Rb2Tb1Y5,0d90a23fa3,Rb2TbY5F20,"['F', 'Rb', 'Y', 'Tb']",28,406.7708,4.7124,4mm,I4mm,107,tetragonal,-196.679,-4.2686,-0.0423,intercalated ion,7.0685,True,0.0,,-0.0423,-0.008
20309,Gd2In1O18Te3Tl3,0d90c4d8c3,Gd2Tl3In(TeO6)3,"['O', 'In', 'Te', 'Gd', 'Tl']",27,379.6413,7.4937,2,C2,5,monoclinic,-189.2423,-1.9541,-0.0132,3D,,True,0.0,,-0.0132,-0.0113
20320,Gd2La2O14Ta2Tb2,0d92b2ac18,LaTbGdTaO7,"['O', 'La', 'Gd', 'Tb', 'Ta']",22,312.0349,7.9614,mm2,Ama2,40,orthorhombic,-224.838,-3.8435,-0.0116,3D,3.0887,True,0.0,,-0.0116,-0.0111
20394,Cs3F7Th1,0da174ad38,Cs3ThF7,"['F', 'Cs', 'Th']",11,266.1302,4.7654,m,Cm,8,monoclinic,-64.1746,-3.6995,-0.0807,intercalated ion,,True,0.0,,-0.0807,-0.0207
20413,F12P2Sr1,0da4f8a990,SrP2F12,"['F', 'P', 'Sr']",15,224.6219,2.7911,-42m,P-4m2,115,tetragonal,-83.5685,-3.2076,-0.0235,intercalated ion,7.2277,True,0.0,,-0.0235,-0.0234
20479,F2O24Pb1Sr9V6,0daeffe91a,Sr9V6Pb(O12F)2,"['O', 'F', 'V', 'Sr', 'Pb']",42,678.6672,4.2168,m,Pm,6,monoclinic,-323.8833,-3.0449,-0.0004,intercalated ion,3.6296,True,0.0,,-0.0004,-0.0004
20552,O12Rb2Te3Zr1,0db8a05fcc,Rb2Zr(TeO4)3,"['O', 'Rb', 'Zr', 'Te']",18,285.8469,4.862,2,C2,5,monoclinic,-116.1719,-2.0476,-0.0963,intercalated ion,1.5282,True,0.0,,-0.0963,-0.0867
20564,Bi3La2O14Ta2Tb1,0dbbb3df36,La2TbTa2Bi3O14,"['O', 'La', 'Tb', 'Ta', 'Bi']",22,324.73,8.4352,m,Pm,6,monoclinic,-186.3015,-3.0517,-0.0102,3D,,True,0.0,,-0.0102,-0.0102
20580,Bi1F28Pt4Tb3,0dbe1e1fe1,Tb3BiPt4F28,"['F', 'Tb', 'Pt', 'Bi']",36,536.8909,6.1797,1,P1,1,triclinic,-194.1151,-2.7366,-0.0178,3D,2.265,True,0.0,,-0.0178,-0.0178
20584,Cl2K12Sc2Te8,0dbe786099,K6ScTe4Cl,"['Cl', 'K', 'Sc', 'Te']",24,946.0644,2.8975,6mm,P6_3mc,186,hexagonal,-89.9442,-1.463,-0.0509,intercalated ion,2.3994,False,0.0,,-0.0509,-0.0169
20586,Lu2Np3O18Tm4,0dbef038d4,Tm4Lu2Np3O18,"['O', 'Tm', 'Lu', 'Np']",27,386.3121,8.7029,1,P1,1,triclinic,-257.081,-3.7863,-0.165,3D,0.6517,True,0.0,,-0.165,-0.1336
20592,C2Cl2Ho3Sm1,0dbfef5716,SmHo3(CCl)2,"['C', 'Cl', 'Sm', 'Ho']",8,156.3013,7.8626,3m,P3m1,156,trigonal,-50.5597,-1.2429,-0.1607,3D,,True,0.0,,-0.1607,-0.0043
20626,Ca5O18Os3Ru1,0dc51fd0f9,Ca5Os3RuO18,"['O', 'Ca', 'Ru', 'Os']",27,352.3224,5.4679,2,C2,5,monoclinic,-202.8239,-2.251,-0.0531,intercalated ion,,True,0.0,,-0.0531,-0.0527
20629,F28La4Ru1V3,0dc56e717b,La4V3RuF28,"['F', 'V', 'Ru', 'La']",36,584.1494,3.8133,1,P1,1,triclinic,-238.1857,-3.5665,-0.0398,3D,,True,0.0,,-0.0398,-0.0397
20675,Al2F1K1Nb11O20Rb3,0dcde6b678,KRb3Nb11Al2O20F,"['O', 'F', 'Al', 'K', 'Rb', 'Nb']",38,509.2798,5.5769,mm2,Imm2,44,orthorhombic,-327.7484,-2.7426,-0.0363,intercalated ion,,True,0.0,,-0.0363,-0.0344
20697,La3O19Os6Pb1,0dd171f775,La3Os6PbO19,"['O', 'La', 'Os', 'Pb']",29,386.3816,8.8931,3,R3,146,trigonal,-241.8191,-2.1353,-0.0301,3D,0.0005,True,0.0,,-0.0301,-0.0038
20839,Eu5O12Tb1W1,0de6c30a13,TbEu5WO12,"['O', 'Eu', 'Tb', 'W']",19,278.2968,7.7245,1,P1,1,triclinic,-189.6262,-3.2209,-0.1013,3D,0.0002,True,0.0,,-0.1013,-0.0077
20869,Hf1O6Re6Ta2Zr17,0dea86c626,HfZr17Ta2(ReO)6,"['O', 'Zr', 'Hf', 'Ta', 'Re']",32,554.4047,9.8974,mm2,Amm2,38,orthorhombic,-325.2195,-1.3088,-0.0296,3D,0.0025,True,0.0,,-0.0296,-0.0208
20879,O14Tb2W2Y4,0dec71f86c,TbY2WO7,"['O', 'Y', 'Tb', 'W']",22,299.2546,7.0202,222,C222_1,20,orthorhombic,-206.6292,-3.4685,-0.003,3D,2.4307,True,0.0,,-0.003,-0.003
20903,O20Ta4Tl20,0df049b4f2,TaTl5O5,"['O', 'Ta', 'Tl']",44,880.3831,9.6787,mm2,Cmc2_1,36,orthorhombic,-267.4473,-1.6778,-0.0085,3D,,False,0.0,,-0.0085,-0.0026
20909,F24Tc2Te2,0df0ed6b65,TcTeF12,"['F', 'Tc', 'Te']",28,476.2941,3.1627,mm2,Pmn2_1,31,orthorhombic,-138.6796,-2.3499,-0.0049,0D,0.0006,False,0.0,,-0.0049,-0.0013
20912,Br6Hf1Sn1,0df193d57f,HfSnBr6,"['Br', 'Sn', 'Hf']",8,313.6811,4.1112,32,P312,149,trigonal,-36.6833,-1.6119,-0.0506,2D,,True,0.0,,-0.0506,-0.0277
20957,Ag6F18Pd1Rh2,0dfb34a049,Ag6PdRh2F18,"['F', 'Rh', 'Pd', 'Ag']",27,430.1274,5.0242,3,P3,143,trigonal,-114.8015,-1.6108,-0.0699,3D,,True,0.0,,-0.0699,-0.068
21065,Bi1C1F34,0e0e73ed27,BiCF34,"['C', 'F', 'Bi']",36,679.7249,2.1179,1,P1,1,triclinic,-110.9312,-0.9118,-0.2537,intercalated ion,,True,0.0,,-0.2537,-0.2536
21072,Mg8O16Pd3Ti1,0e0f5cfb3a,Mg8TiPd3O16,"['O', 'Mg', 'Ti', 'Pd']",28,315.7644,4.2994,2,P2,3,monoclinic,-182.6249,-2.4007,-0.0373,3D,1.6623,True,0.0,,-0.0373,-0.0149
21077,O8Pu2Sr1,0e10e09ce2,SrPu2O8,"['O', 'Sr', 'Pu']",11,168.3103,6.9418,2,C2,5,monoclinic,-102.2166,-2.9462,-0.1949,intercalated ion,,True,0.0,,-0.1949,-0.1906
21082,Ca2La1O19Os6Pr1,0e11a0c2e8,Ca2LaPrOs6O19,"['O', 'Ca', 'La', 'Pr', 'Os']",29,382.6535,7.8343,1,P1,1,triclinic,-238.6894,-2.1926,-0.0361,3D,0.0012,True,0.0,,-0.0361,-0.0131
21135,Br16Ir2Os1Sc12,0e1ad41de7,Sc12Ir2OsBr16,"['Sc', 'Br', 'Os', 'Ir']",31,991.6463,4.0065,1,P1,1,triclinic,-184.6061,-1.7265,-0.0098,intercalated ion,0.075,True,0.0,,-0.0098,-0.0046
21140,Br18Pr1Ta6Tl1,0e1b8f5ed3,PrTa6TlBr18,"['Br', 'Pr', 'Ta', 'Tl']",26,804.6411,5.9213,3,R3,146,trigonal,-144.8221,-1.4257,-0.0058,intercalated ion,,True,0.0,,-0.0058,-0.0046
21144,Al3Br16Cd2Ga1,0e1c5ca50c,Al3Cd2GaBr16,"['Al', 'Ga', 'Br', 'Cd']",22,844.7203,3.2513,1,P1,1,triclinic,-73.2535,-1.4069,-0.0071,1D,,True,0.0,,-0.0071,-0.0056
21172,Cu1Ga7O4Ti12,0e2088e21c,Ti12Ga7CuO4,"['O', 'Ti', 'Cu', 'Ga']",24,322.5018,6.1273,3,R3,146,trigonal,-171.3794,-1.3144,-0.0553,3D,0.0092,True,0.0,,-0.0553,-0.0543
21180,F20Nb1Ta2Tc1,0e224a2817,Ta2NbTcF20,"['F', 'Nb', 'Tc', 'Ta']",24,409.2365,3.7849,1,P1,1,triclinic,-159.6518,-3.2185,-0.0145,1D,0.4716,True,0.0,,-0.0145,-0.0134
21241,F24Ge1Np1Rh2,0e2c7b098f,NpGeRh2F24,"['F', 'Ge', 'Rh', 'Np']",28,444.6505,3.6277,m,Pm,6,monoclinic,-142.162,-2.289,-0.1334,0D,,True,0.0,,-0.1334,-0.1325
21254,Br11I1La5Li1Os1Tb1,0e2f3859c1,LiLa5TbOsIBr11,"['Li', 'Br', 'I', 'La', 'Tb', 'Os']",20,735.8085,4.641,1,P1,1,triclinic,-102.0299,-2.0023,-0.022,intercalated ion,,True,0.0,,-0.022,-0.0213
21338,Br12Na1Pr1Ru1Sm5,0e3ea4ac78,NaPrSm5RuBr12,"['Na', 'Br', 'Ru', 'Pr', 'Sm']",20,706.7518,4.6418,1,P1,1,triclinic,-97.5691,-1.9478,-0.027,intercalated ion,0.1807,True,0.0,,-0.027,-0.0269
21365,Cs10F18Th2,0e42402bdb,Cs5ThF9,"['F', 'Cs', 'Th']",30,727.0778,4.8763,mm2,Cmc2_1,36,orthorhombic,-162.4294,-3.4747,-0.0629,intercalated ion,5.6633,False,0.0,,-0.0629,-0.0189
21386,Au4Bi1O12Sm3,0e45c101e1,Sm3Bi(AuO3)4,"['O', 'Sm', 'Au', 'Bi']",20,295.1418,9.2266,m,Pm,6,monoclinic,-129.76,-1.9622,-0.0326,3D,1.5035,True,0.0,,-0.0326,-0.0212