Unnamed: 0,Composition,MaterialId,Reduced Formula,Elements,NSites,Volume,Density,Point Group,Space Group,Space Group Number,Crystal System,Corrected Energy,Formation Energy Per Atom,Decomposition Energy Per Atom,Dimensionality Cheon,Bandgap,Is Train,Decomposition Energy Per Atom All,Decomposition Energy Per Atom Relative,Decomposition Energy Per Atom MP,Decomposition Energy Per Atom MP OQMD
42702,Ge1O12Ru1Tb5,1c79000d67,Tb5GeRuO12,"['O', 'Ge', 'Ru', 'Tb']",19,254.3418,7.5755,2,C2,5,monoclinic,-158.3928,-3.2604,-0.0105,3D,0.128,True,0.0,,-0.0105,-0.0055
42746,O24Pr7Sr1W4,1c8074b051,SrPr7(WO6)4,"['O', 'Sr', 'Pr', 'W']",36,544.916,6.6838,1,P1,1,triclinic,-318.356,-3.1282,-0.0177,intercalated ion,0.0017,True,-0.0,,-0.0177,-0.0175
42798,B4Br5La1Pr3,1c89d2df69,LaPr3B4Br5,"['B', 'Br', 'La', 'Pr']",13,375.2837,4.4442,m,Cm,8,monoclinic,-73.7249,-1.5034,-0.0436,3D,0.0313,True,0.0,,-0.0436,-0.0408
42822,Eu1O12Ta1Tm5,1c8d879440,EuTm5TaO12,"['O', 'Eu', 'Tm', 'Ta']",19,252.7573,8.9977,1,P1,1,triclinic,-175.7549,-3.7816,-0.0186,3D,0.0085,True,0.0,,-0.0186,-0.0063
42960,Br3Eu6Se5,1ca68d74c6,Eu6Se5Br3,"['Se', 'Br', 'Eu']",14,401.3641,6.3974,1,P1,1,triclinic,-116.3798,-2.3027,-0.0635,3D,0.5439,True,0.0,,-0.0635,-0.0397
42967,O12Pd1Pr5Ru1,1ca847d1cd,Pr5PdRuO12,"['O', 'Ru', 'Pd', 'Pr']",19,288.9948,6.3436,2,C2,5,monoclinic,-153.2373,-2.9212,-0.052,3D,0.0049,True,0.0,,-0.052,-0.0467
43020,F22O2Sb1V5,1cb1af8d54,V5Sb(OF11)2,"['O', 'F', 'V', 'Sb']",30,440.0676,3.1184,1,P1,1,triclinic,-187.2059,-2.857,-0.0037,2D,2.2677,True,0.0,,-0.0037,-0.0029
43027,Bi3F28La1Pt4,1cb2f3afba,LaBi3Pt4F28,"['F', 'La', 'Pt', 'Bi']",36,566.489,6.0916,1,P1,1,triclinic,-179.7619,-2.3709,-0.0731,3D,2.1243,True,0.0,,-0.0731,-0.0731
43052,Bi1Cs1Ga4O8,1cb75065a9,CsGa4BiO8,"['O', 'Ga', 'Cs', 'Bi']",14,219.3083,5.6695,mm2,Imm2,44,orthorhombic,-86.4514,-2.1407,-0.0239,intercalated ion,3.5937,True,0.0,,-0.0239,-0.0239
43055,O2Pr30Si18,1cb799bee8,Pr15Si9O,"['O', 'Si', 'Pr']",50,1338.4989,5.9112,6mm,P6_3mc,186,hexagonal,-290.0346,-0.7811,-0.009,3D,,True,-0.0,,-0.009,-0.0067
43061,Ca1La2O19Os6Sr1,1cba0a9ec9,SrCaLa2Os6O19,"['O', 'Ca', 'Sr', 'La', 'Os']",29,388.0413,7.9204,1,P1,1,triclinic,-239.2604,-2.2179,-0.0507,intercalated ion,0.0022,True,0.0,,-0.0507,-0.0376
43088,Cl2I4Np2,1cbef88d36,NpI2Cl,"['Cl', 'I', 'Np']",8,402.8347,4.3386,1,P1,1,triclinic,-48.1477,-1.5574,-0.004,2D,0.0019,True,0.0,,-0.004,-0.0006
43104,Eu1Li2O16Tb1W4,1cc2fa63f5,Li2TbEu(WO4)4,"['Li', 'O', 'Eu', 'Tb', 'W']",24,312.4306,6.9951,2,P2,3,monoclinic,-211.6943,-2.5813,-0.0181,intercalated ion,,True,0.0,,-0.0181,-0.0057
43105,La1O6Sb1Ti1,1cc2fee202,LaTiSbO6,"['O', 'Ti', 'Sb', 'La']",9,125.5716,5.3494,32,P312,149,trigonal,-74.3434,-3.0772,-0.0093,3D,2.8088,True,0.0,,-0.0093,-0.0002
43143,Cs8O16Si4Zn4,1ccbf35cad,Cs2ZnSiO4,"['O', 'Si', 'Zn', 'Cs']",32,620.8814,4.5285,2,Cmc2_1,36,orthorhombic,-190.6577,-2.4246,-0.0191,intercalated ion,3.2549,False,0.0,,-0.0191,-0.0191
43148,Cl16Os4Se16,1ccd2c2146,Os(SeCl)4,"['Cl', 'Se', 'Os']",36,1113.1593,3.8659,2,P2_1,4,monoclinic,-158.897,-0.791,-0.1633,0D,,True,0.0,,-0.1633,-0.1438
43149,F18Np5Pu1,1ccda64674,PuNp5F18,"['F', 'Np', 'Pu']",24,320.1763,9.1848,2,C2,5,monoclinic,-206.3285,-3.8715,-0.0432,3D,,True,0.0,,-0.0432,-0.0416
43162,F36Sc1Zn1,1ccf266fde,ScZnF36,"['F', 'Sc', 'Zn']",38,613.1301,2.1512,1,P1,1,triclinic,-110.4501,-0.8959,-0.2379,0D,,True,0.0,,-0.2379,-0.2081
43180,Ho1Mo4O24Tb6Y1,1cd18f3ebc,Tb6YHo(MoO6)4,"['O', 'Y', 'Mo', 'Tb', 'Ho']",36,475.7472,6.894,2,C2,5,monoclinic,-315.6243,-3.1843,-0.0006,3D,2.2155,True,0.0,,-0.0006,-0.0006
43257,Ba3O9Rh2Ru1,1cdd5d3678,Ba3RuRh2O9,"['O', 'Ru', 'Rh', 'Ba']",15,216.5392,6.6168,3m,R3m,160,trigonal,-105.7002,-2.0939,-0.0121,intercalated ion,0.0039,True,0.0,,-0.0121,-0.0049
43346,Ir3O12Rh1Ru2,1ced613510,Ir3Ru2RhO12,"['O', 'Ru', 'Rh', 'Ir']",18,196.2186,9.0863,mm2,Cmm2,35,orthorhombic,-135.9484,-1.3414,-0.0212,3D,0.005,True,0.0,,-0.0212,-0.0212
43394,Bi3Lu3O14Tb2,1cf5d99bd9,Tb2Lu3Bi3O14,"['O', 'Tb', 'Lu', 'Bi']",22,309.6458,9.0827,1,P1,1,triclinic,-168.9638,-2.9632,-0.0541,3D,1.4553,True,0.0,,-0.0541,-0.0228
43444,C1F34Te1,1cfc143db8,TeCF34,"['C', 'F', 'Te']",36,690.7756,1.8884,1,P1,1,triclinic,-114.5369,-1.0327,-0.2651,intercalated ion,,True,0.0,,-0.2651,-0.265
43570,Br2Ge1Pr2Rh1,1d111f2f8b,Pr2GeRhBr2,"['Ge', 'Br', 'Rh', 'Pr']",6,184.0639,5.5678,3m,P3m1,156,trigonal,-34.0297,-1.5345,-0.0427,2D,,True,-0.0,,-0.0427,-0.0382
43572,O12Pr5Tc1W1,1d11f62b89,Pr5TcWO12,"['O', 'Tc', 'Pr', 'W']",19,290.287,6.7407,2,C2,5,monoclinic,-168.1575,-3.2399,-0.0331,3D,1.105,True,0.0,,-0.0331,-0.0331
43592,Br2Si1Tb2Zn1,1d1573b505,Tb2ZnSiBr2,"['Si', 'Zn', 'Br', 'Tb']",6,160.8695,5.8956,3m,P3m1,156,trigonal,-27.6097,-1.397,-0.0207,2D,0.0131,True,0.0,,-0.0207,-0.0132
43662,Ga4O20Rb4Ti6,1d21949a4c,Rb2Ti3(GaO5)2,"['O', 'Ti', 'Ga', 'Rb']",34,619.1826,3.2932,2,C2,5,monoclinic,-261.6216,-2.9193,-0.0162,intercalated ion,4.1004,True,0.0,,-0.0162,-0.0121
43692,Br6Cl1Nb3Te1,1d262f9f4d,Nb3TeBr6Cl,"['Cl', 'Br', 'Nb', 'Te']",11,326.7999,4.6808,m,Cm,8,monoclinic,-59.8132,-1.336,-0.0439,2D,0.6263,True,0.0,,-0.0439,-0.0028
43733,Cl18Rb3Ru4Tl3,1d2e61cd7e,Rb3Tl3(Ru2Cl9)2,"['Cl', 'Rb', 'Ru', 'Tl']",28,767.148,4.1386,3m,P3m1,156,trigonal,-118.8704,-1.374,-0.0348,intercalated ion,,True,0.0,,-0.0348,-0.0148
43739,Ho1Na4O6Pt1,1d2f434b42,Na4HoPtO6,"['O', 'Na', 'Ho', 'Pt']",12,153.4145,5.9312,2,C2,5,monoclinic,-70.1992,-2.0473,-0.0194,intercalated ion,0.002,True,0.0,,-0.0194,-0.0188
43782,Ce1Cs2O12W3,1d35e3fd72,Cs2Ce(WO4)3,"['O', 'Cs', 'Ce', 'W']",18,313.1842,6.0945,2,C2,5,monoclinic,-151.7717,-2.5443,-0.0408,intercalated ion,1.826,True,0.0,,-0.0408,-0.0408
43816,Br1O24Re5Th2,1d3a3d95fe,Th2Re5BrO24,"['O', 'Br', 'Re', 'Th']",32,636.1136,4.8528,m,Pm,6,monoclinic,-271.3882,-2.3109,-0.0507,3D,2.142,True,0.0,,-0.0507,-0.0503
43834,Ca3Np4O24Tm5,1d3d060bd3,Ca3Tm5Np4O24,"['O', 'Ca', 'Tm', 'Np']",36,487.4246,7.825,2,P2,3,monoclinic,-327.2109,-3.5631,-0.2487,intercalated ion,0.0006,True,0.0,,-0.2487,-0.0887
43845,Ca1Ir1Na4O6,1d3f51372c,Na4CaIrO6,"['O', 'Na', 'Ca', 'Ir']",12,153.6184,4.5427,2,C2,5,monoclinic,-69.0114,-1.9325,-0.1486,intercalated ion,0.2153,True,0.0,,-0.1486,-0.1474
43868,Ag5Bi1In1O6,1d42655951,InAg5BiO6,"['O', 'Ag', 'In', 'Bi']",13,201.2773,7.9129,32,P312,149,trigonal,-62.7486,-0.9428,-0.0106,3D,0.0113,True,0.0,,-0.0106,-0.0105
43879,Cs2O24Se4Ta6,1d4424219c,CsTa3(SeO6)2,"['O', 'Se', 'Cs', 'Ta']",36,609.1185,5.5922,6mm,P6_3mc,186,hexagonal,-299.3468,-2.6021,-0.0572,intercalated ion,,True,-0.0,,-0.0572,-0.0572
43886,O6Tc5Ti3Zr18,1d4570a2ce,Zr18Ti3Tc5O6,"['O', 'Ti', 'Zr', 'Tc']",32,557.7739,7.0605,mm2,Amm2,38,orthorhombic,-300.42,-1.2933,-0.0172,3D,,False,0.0,,-0.0172,-0.0056
43913,La10O2Sn6,1d4a20d419,La5Sn3O,"['O', 'Sn', 'La']",18,551.5159,6.4231,4mm,I4cm,108,tetragonal,-107.7257,-1.3562,-0.0339,3D,,True,0.0,,-0.0339,-0.0269
43939,Au2O14Tm6,1d4e17356b,Tm3AuO7,"['O', 'Tm', 'Au']",22,286.0337,9.4717,222,C222_1,20,orthorhombic,-167.134,-2.93,-0.0349,3D,0.1898,False,0.0,,-0.0349,-0.0246
44053,F28Lu3Ru4Y1,1d62be22c6,YLu3Ru4F28,"['F', 'Y', 'Ru', 'Lu']",36,512.8354,5.019,1,P1,1,triclinic,-222.8747,-3.1174,-0.0385,3D,0.0015,True,0.0,,-0.0385,-0.0152
44057,Cs1Ga4O8Sm1,1d635c7f26,CsSm(GaO2)4,"['O', 'Ga', 'Cs', 'Sm']",14,211.3658,5.422,mm2,Imm2,44,orthorhombic,-92.9188,-2.5435,-0.0092,intercalated ion,3.0477,False,0.0,,-0.0092,-0.0092
44072,F1La4O11Pr2U1,1d65bd654c,La4Pr2UO11F,"['O', 'F', 'La', 'Pr', 'U']",19,318.3164,6.6275,1,P1,1,triclinic,-171.9395,-3.9475,-0.0259,3D,0.8807,True,-0.0,,-0.0259,-0.0259
44083,Cl11La2Pr4Ru1,1d67774bc5,La2Pr4RuCl11,"['Cl', 'Ru', 'La', 'Pr']",18,502.9558,4.3993,1,P1,1,triclinic,-100.8446,-2.3467,-0.0143,3D,,True,-0.0,,-0.0143,-0.012
44107,O20Sb4Tc4,1d6a667aa0,TcSbO5,"['O', 'Tc', 'Sb']",28,688.6796,2.8911,222,P2_12_12_1,19,orthorhombic,-208.4359,-1.8399,-0.0116,1D,1.82,True,-0.0,,-0.0116,-0.0116
44109,Cl26P2Se2Tc2,1d6acbc187,TcPSeCl13,"['P', 'Cl', 'Se', 'Tc']",32,986.3384,2.252,mm2,Cmc2_1,36,orthorhombic,-120.777,-1.068,-0.028,0D,,False,0.0,,-0.028,-0.0273
44147,Au4Br2I2,1d7305fb50,Au2IBr,"['Br', 'I', 'Au']",8,290.6019,6.8654,4mm,P4_2cm,101,tetragonal,-22.1113,-0.3367,-0.002,2D,1.9813,True,0.0,,-0.002,-0.0016
44167,Br1C3Pm3,1d76b53208,Pm3C3Br,"['C', 'Br', 'Pm']",7,140.3556,6.5181,m,Cm,8,monoclinic,-47.9402,-0.6245,-0.1934,3D,0.0054,True,0.0,,-0.1934,-0.1871
44168,Cl5Ga2Hg2I3,1d76e151b4,Ga2Hg2I3Cl5,"['Cl', 'Ga', 'I', 'Hg']",12,461.2099,3.9554,1,P1,1,triclinic,-33.9399,-1.1218,-0.0148,0D,2.4601,True,0.0,,-0.0148,-0.0145
44186,Bi5O18Ru3Sm1,1d792760fb,SmBi5(RuO6)3,"['O', 'Ru', 'Sm', 'Bi']",27,389.2252,7.6215,2,C2,5,monoclinic,-188.2883,-1.7494,-0.04,3D,0.0028,True,0.0,,-0.04,-0.04
44233,F24Re1Te2U1,1d8468dab5,UReTe2F24,"['F', 'Te', 'Re', 'U']",28,497.2169,3.7919,m,Pm,6,monoclinic,-152.6373,-2.7407,-0.0049,0D,0.0752,True,0.0,,-0.0049,-0.0022
44337,Br12Ho1P2Y7,1d96ac390d,Y7Ho(PBr6)2,"['P', 'Br', 'Y', 'Ho']",22,732.9705,4.0962,m,Pm,6,monoclinic,-125.5946,-2.058,-0.0769,3D,,True,0.0,,-0.0769,-0.0183
44360,As1O14P4Sb1,1d9aca894c,SbAs(P2O7)2,"['O', 'P', 'As', 'Sb']",20,280.1013,3.2284,1,P1,1,triclinic,-146.3872,-2.3337,-0.0206,3D,2.0617,True,0.0,,-0.0206,-0.0206
44371,Hg1O6Pt1Te1,1d9c5918cf,HgTePtO6,"['O', 'Te', 'Pt', 'Hg']",9,122.8013,8.3739,32,P312,149,trigonal,-49.4925,-1.143,-0.0568,3D,0.4871,True,-0.0,,-0.0568,-0.0568
44378,F20K2Tb4Y2,1d9d17aacb,KTb2YF10,"['F', 'K', 'Y', 'Tb']",28,403.777,5.2298,mm2,Imm2,44,orthorhombic,-191.9234,-4.2858,0.0,,,,0.0,,0.0,0.0
44393,O24Ru1S6Tl3,1d9f876c6c,Tl3Ru(SO4)6,"['O', 'S', 'Ru', 'Tl']",34,515.3667,4.1584,3,R3,146,trigonal,-214.4022,-1.6022,-0.0167,3D,,True,0.0,,-0.0167,-0.0167
44453,Br12Ga3Pr12Si1,1daacfa86b,Pr12Ga3SiBr12,"['Si', 'Ga', 'Br', 'Pr']",28,905.4672,5.2945,32,R32,155,trigonal,-136.4714,-1.6053,-0.0895,,0.0056,,0.0,,-0.0895,-0.0356
44519,Ga1In1O18V6,1db7a826ce,V6InGaO18,"['O', 'V', 'Ga', 'In']",26,437.0452,2.9567,1,P1,1,triclinic,-208.8218,-2.2875,-0.0163,3D,,True,0.0,,-0.0163,-0.0127
44537,Ag2Cs4O14P4,1dbbde1663,Cs2AgP2O7,"['O', 'P', 'Ag', 'Cs']",24,499.4937,3.6411,m,Cc,9,monoclinic,-155.7346,-2.3151,-0.0096,intercalated ion,0.1832,False,0.0,,-0.0096,-0.0095
44553,Ca12Ge9O48Ti3V8,1dbef8a58d,Ca12Ti3V8(Ge3O16)3,"['O', 'Ca', 'Ti', 'V', 'Ge']",80,986.3953,4.1308,1,P1,1,triclinic,-629.8342,-2.8787,-0.0292,intercalated ion,,True,0.0,,-0.0292,-0.0283
44596,O12Ru1Sc1Sr6Tc1,1dc7d161fe,Sr6ScTcRuO12,"['O', 'Sc', 'Sr', 'Tc', 'Ru']",21,301.0473,5.3048,m,Cm,8,monoclinic,-155.8375,-2.8742,-0.0453,intercalated ion,0.1612,True,0.0,,-0.0453,-0.0305
44606,B2O18Pr6Te2,1dca4d3dd4,Pr3BTeO9,"['B', 'O', 'Te', 'Pr']",28,390.3807,5.9987,6,P6_3,173,hexagonal,-224.9733,-3.1278,-0.0116,3D,3.3949,True,0.0,,-0.0116,-0.0116
44612,Ac1K3O8,1dcaa34007,K3AcO8,"['O', 'K', 'Ac']",12,229.5784,3.4161,-42m,I-42m,121,tetragonal,-65.8036,-1.564,-0.0448,intercalated ion,,True,0.0,,-0.0448,-0.0442
44626,As1Br18Cs6P3,1dcd75881d,Cs6As(PBr6)3,"['P', 'As', 'Br', 'Cs']",28,1052.1453,3.7934,3m,P3m1,156,trigonal,-93.8514,-1.3613,-0.0198,intercalated ion,2.1691,True,0.0,,-0.0198,-0.0038
44693,B1Br12Hf5Zr1,1dd94c7df6,Hf5ZrBBr12,"['B', 'Br', 'Zr', 'Hf']",19,532.7591,6.0883,1,P1,1,triclinic,-115.7091,-1.6344,-0.0998,3D,0.0077,True,0.0,,-0.0998,-0.0547
44707,Br8Se14Tc12,1ddb615ee6,Tc6Se7Br4,"['Se', 'Br', 'Tc']",34,994.9349,4.8746,3m,R3c,161,trigonal,-217.3112,-0.9102,-0.6625,3D,1.5056,False,0.0,,-0.6625,-0.1501
44713,F20Rb8Tb3Y1,1ddda4bf5d,Rb8Tb3YF20,"['F', 'Rb', 'Y', 'Tb']",32,602.1368,4.4934,m,Pm,6,monoclinic,-186.1714,-3.7415,-0.0428,intercalated ion,6.5548,False,0.0,,-0.0428,-0.011
44717,Ba6Ir1Lu1O12Tm1,1dde28b124,Ba6TmLuIrO12,"['O', 'Ba', 'Tm', 'Lu', 'Ir']",21,367.309,7.0166,m,Cm,8,monoclinic,-151.201,-2.9751,-0.1123,intercalated ion,,True,0.0,,-0.1123,-0.0473
44736,Ba4Ir3O16Te1,1de256f82d,Ba4TeIr3O16,"['O', 'Te', 'Ba', 'Ir']",24,420.6989,5.9583,2,P2,3,monoclinic,-164.6478,-2.0061,-0.0748,intercalated ion,0.0015,True,-0.0,,-0.0748,-0.0748
44772,F28Ho1Lu3Tc4,1de8becc60,HoLu3Tc4F28,"['F', 'Tc', 'Ho', 'Lu']",36,517.6687,5.1766,1,P1,1,triclinic,-234.3565,-3.368,-0.0958,3D,,True,0.0,,-0.0958,-0.0766
44789,Cd3Cu1O28P8Pb4,1dea189160,Cd3CuP8(PbO7)4,"['O', 'P', 'Cu', 'Cd', 'Pb']",44,633.5666,5.0462,1,P1,1,triclinic,-307.2014,-2.3553,-0.0068,3D,,True,-0.0,,-0.0068,-0.0068
44792,O16Sc2V6Zn2,1deac32d77,ScV3ZnO8,"['O', 'Sc', 'V', 'Zn']",26,298.1215,4.3578,mm2,Cmc2_1,36,orthorhombic,-218.6984,-2.6863,-0.0097,3D,1.3484,True,-0.0,,-0.0097,-0.0032
44803,La1O19Os6Sr3,1dec43d52d,Sr3LaOs6O19,"['O', 'Sr', 'La', 'Os']",29,396.8076,7.7298,3,R3,146,trigonal,-234.1393,-2.1641,-0.1035,intercalated ion,0.002,True,0.0,,-0.1035,-0.0834
44836,Cd4Li4O16Sb2Ta2,1df1fac2f3,Li2TaCd2SbO8,"['Li', 'O', 'Cd', 'Sb', 'Ta']",28,366.5929,6.0644,2,C2,5,monoclinic,-186.2989,-2.2797,-0.0071,intercalated ion,2.2374,True,0.0,,-0.0071,-0.0034
44877,Ho5O12Re1Tc1,1dfa589256,Ho5ReTcO12,"['O', 'Tc', 'Ho', 'Re']",19,250.5883,8.6202,2,C2,5,monoclinic,-169.1753,-3.3728,-0.0301,3D,,True,0.0,,-0.0301,-0.0301
44906,F14Hf2Lu1Tb1,1dff937bea,TbLuHf2F14,"['F', 'Tb', 'Lu', 'Hf']",18,276.1536,5.7536,1,P1,1,triclinic,-133.6802,-4.325,-0.0011,3D,6.8613,True,0.0,,-0.0011,-0.0003
44922,F28Hf1Tc3Tm4,1e01aa8927,Tm4HfTc3F28,"['F', 'Tc', 'Tm', 'Hf']",36,514.0925,5.4271,1,P1,1,triclinic,-242.5287,-3.6129,-0.1876,3D,,True,0.0,,-0.1876,-0.0616
44927,Cl4O10Pb2Sr4Tc2,1e024a9f03,Sr2TcPbCl2O5,"['O', 'Cl', 'Sr', 'Tc', 'Pb']",22,419.7355,4.9954,mm2,Cmc2_1,36,orthorhombic,-145.6099,-2.4469,-0.138,intercalated ion,0.4996,True,0.0,,-0.138,-0.1322
44950,Ca1Cs2H2O6,1e061b2f53,Cs2Ca(HO3)2,"['H', 'O', 'Ca', 'Cs']",11,213.6139,3.1397,m,Cm,8,monoclinic,-57.9821,-1.6102,-0.0912,intercalated ion,0.0841,False,0.0,,-0.0912,-0.0912
44966,Br4Re2Se16Tc10,1e08dfdfa1,ReTc5(Se4Br)2,"['Se', 'Br', 'Tc', 'Re']",32,849.682,5.7367,1,P1,1,triclinic,-218.6397,-0.8644,-0.5989,3D,0.9316,True,0.0,,-0.5989,-0.0997
45009,Bi1Eu1F30Np6,1e0f244d05,EuNp6BiF30,"['F', 'Eu', 'Bi', 'Np']",38,612.8637,6.3751,2,C2,5,monoclinic,-291.6699,-3.7489,-0.019,3D,,True,0.0,,-0.019,-0.0093
45055,Br18Rb6Ti1V3,1e1804dcd9,Rb6Ti(VBr6)3,"['Ti', 'V', 'Br', 'Rb']",28,959.5853,3.7236,3m,P3m1,156,trigonal,-118.069,-1.6991,-0.0145,intercalated ion,0.0026,True,0.0,,-0.0145,-0.0075
45079,Ce1F28Gd3Zr4,1e1cf89744,CeGd3Zr4F28,"['F', 'Zr', 'Ce', 'Gd']",36,588.1949,4.2593,1,P1,1,triclinic,-288.0917,-4.2266,-0.0331,3D,,True,0.0,,-0.0331,-0.0295
45086,C3Cl1Pm3,1e1f5aeb1a,Pm3C3Cl,"['C', 'Cl', 'Pm']",7,130.0899,6.4651,m,Cm,8,monoclinic,-48.6222,-0.6917,-0.1845,3D,,False,-0.0,,-0.1845,-0.1696
45102,Li4O12Pt2Te2,1e215d6c85,Li2TePtO6,"['Li', 'O', 'Te', 'Pt']",20,218.015,6.5893,mm2,Pnn2,34,orthorhombic,-118.8947,-1.6728,-0.0293,intercalated ion,1.5861,True,0.0,,-0.0293,-0.0227
45104,Br10La1Os1Sm5,1e21809ec1,LaSm5OsBr10,"['Br', 'La', 'Sm', 'Os']",17,613.7993,5.086,1,P1,1,triclinic,-88.6067,-1.9106,-0.0452,3D,0.338,True,0.0,,-0.0452,-0.0452
45134,Ac8O24W4,1e2546fcd1,Ac2WO6,"['O', 'W', 'Ac']",36,593.4948,8.2128,222,P2_12_12_1,19,orthorhombic,-321.6654,-3.2809,-0.2328,3D,3.6709,True,0.0,,-0.2328,-0.2328
45168,Nb1O2Pt6Ta3Zr6,1e2b194837,Zr6Ta3Nb(Pt3O)2,"['O', 'Zr', 'Nb', 'Ta', 'Pt']",18,304.4572,13.0113,32,P312,149,trigonal,-167.3682,-1.3381,-0.0309,3D,0.0025,True,0.0,,-0.0309,-0.0111
45193,Bi1F22Pu1Zr4,1e2f040635,PuZr4BiF22,"['F', 'Zr', 'Bi', 'Pu']",28,442.7836,4.6347,222,I222,23,orthorhombic,-201.9223,-3.84,-0.0114,3D,,True,0.0,,-0.0114,-0.0113
45197,F28La4Rh2Ru2,1e2f9bf591,La2RuRhF14,"['F', 'Ru', 'Rh', 'La']",36,590.2455,4.2074,2,P2_1,4,monoclinic,-217.9049,-3.0934,-0.0151,3D,0.0012,True,0.0,,-0.0151,-0.0151
45199,F28Sn1Tc3Tm4,1e2ff616c2,Tm4Tc3SnF28,"['F', 'Tc', 'Sn', 'Tm']",36,514.0925,5.234,1,P1,1,triclinic,-229.7884,-3.4242,-0.2469,3D,,True,0.0,,-0.2469,-0.0794
45216,Cu2K2O16Pt6,1e33a7d093,KCuPt3O8,"['O', 'K', 'Cu', 'Pt']",26,328.4136,8.2507,1,P1,1,triclinic,-154.4459,-1.0936,-0.0268,intercalated ion,,True,0.0,,-0.0268,-0.0268
45220,Ca12Ge11O48Sn1V8,1e3449c955,Ca12V8SnGe11O48,"['O', 'Ca', 'V', 'Ge', 'Sn']",80,988.9065,4.3225,-4,I-4,82,tetragonal,-606.334,-2.7154,-0.0217,intercalated ion,,True,0.0,,-0.0217,-0.0209
45251,Au2Cu2Na1O8Tl1,1e38e6281e,NaTlCu2(AuO4)2,"['O', 'Na', 'Cu', 'Au', 'Tl']",14,174.5075,8.3394,2,C2,5,monoclinic,-71.1602,-0.939,-0.042,intercalated ion,,True,0.0,,-0.042,-0.0419
45255,Ir1O13Os3Pb4,1e3962d8b2,IrOs3Pb4O13,"['O', 'Os', 'Ir', 'Pb']",21,285.1403,10.4807,3m,R3m,160,trigonal,-153.0159,-1.4915,-0.0746,3D,0.0066,True,0.0,,-0.0746,-0.0062
45297,Br18Nb1Ta5Y1,1e3f271c9c,YTa5NbBr18,"['Br', 'Y', 'Nb', 'Ta']",25,793.5865,5.2831,1,P1,1,triclinic,-141.7866,-1.4586,-0.0028,intercalated ion,0.1071,False,0.0,,-0.0028,-0.0024
45340,Br12O4Os2Tc2,1e46e86943,TcOs(Br3O)2,"['O', 'Br', 'Tc', 'Os']",20,528.5432,5.0246,m,Pc,7,monoclinic,-102.516,-0.9952,-0.1106,1D,0.0022,True,0.0,,-0.1106,-0.0644
45400,As1La4O4Sb2,1e52bcfcaf,La4Sb2AsO4,"['O', 'As', 'Sb', 'La']",11,252.577,6.1672,mm2,Amm2,38,orthorhombic,-83.1688,-2.7923,-0.0624,3D,0.0107,True,0.0,,-0.0624,-0.0303
45431,Cs4Ga4O20Ti6,1e57182ac5,Cs2Ti3(GaO5)2,"['O', 'Ti', 'Ga', 'Cs']",34,619.1826,3.802,2,C2,5,monoclinic,-261.424,-2.9235,-0.0355,intercalated ion,,True,0.0,,-0.0355,-0.0277
45462,Au1La1Na4O6,1e5c55181f,Na4LaAuO6,"['O', 'Na', 'La', 'Au']",12,168.0135,5.1772,2,C2,5,monoclinic,-65.489,-1.8584,-0.0271,intercalated ion,1.4086,True,0.0,,-0.0271,-0.0241
45465,Ce1O12Tb3V4,1e5d2e0c04,Tb3CeV4O12,"['O', 'V', 'Ce', 'Tb']",20,238.8353,7.0406,m,Pm,6,monoclinic,-182.2575,-3.3355,-0.059,3D,0.0005,True,-0.0,,-0.059,-0.0508
45499,F28Ho3Pt2Tm1V2,1e625965de,Ho3TmV2Pt2F28,"['F', 'V', 'Ho', 'Tm', 'Pt']",36,512.5715,5.4676,1,P1,1,triclinic,-221.1558,-3.3084,-0.058,3D,2.0291,True,0.0,,-0.058,-0.016
45545,Cl1Cs7,1e6943e651,Cs7Cl,"['Cl', 'Cs']",8,589.4981,2.7205,1,P1,1,triclinic,-13.1595,-0.6304,-0.0667,intercalated ion,,True,0.0,,-0.0667,-0.0666
45556,O12Sm1U4Y1,1e6a96079e,SmYU4O12,"['O', 'Y', 'Sm', 'U']",18,237.2616,9.6819,2,C2,5,monoclinic,-185.298,-3.8651,-0.0337,3D,0.0013,True,0.0,,-0.0337,-0.0173
45580,Nb4O13Sn3,1e6e309330,Nb4Sn3O13,"['O', 'Nb', 'Sn']",20,312.8506,4.9667,3m,R3m,160,trigonal,-169.579,-2.6411,-0.0059,3D,1.8755,True,0.0,,-0.0059,-0.0059
45598,Br12Pt3Rh1Sm12,1e71f372af,Sm12Pt3RhBr12,"['Br', 'Rh', 'Sm', 'Pt']",28,862.9938,6.6409,32,R32,155,trigonal,-148.4065,-1.663,-0.0186,3D,0.0108,True,0.0,,-0.0186,-0.0186
45613,Ho1Lu4O16Sr4Tm3,1e75f10457,Sr4HoTm3Lu4O16,"['O', 'Sr', 'Ho', 'Tm', 'Lu']",28,397.9647,8.2537,m,Pm,6,monoclinic,-228.8802,-3.8165,-0.0005,intercalated ion,3.8097,True,0.0,,-0.0005,-0.0005
45659,Br16Hf3Zr1,1e7fb485ba,Hf3ZrBr16,"['Br', 'Zr', 'Hf']",20,818.2271,3.8664,1,P1,1,triclinic,-101.5757,-1.8483,-0.0381,1D,2.9691,True,0.0,,-0.0381,-0.001
45669,Br18Li2Rb6V4,1e81ab5ad9,Rb3LiV2Br9,"['Li', 'V', 'Br', 'Rb']",30,954.6215,3.7724,3,P3,143,trigonal,-125.9475,-1.6815,-0.0181,intercalated ion,0.0008,False,-0.0,,-0.0181,-0.0172
45670,Nb4O40P8Tl8V4,1e81aba569,NbTl2V(PO5)2,"['O', 'P', 'V', 'Nb', 'Tl']",64,943.6619,5.4519,mm2,Pna2_1,33,orthorhombic,-500.3092,-2.5539,-0.0372,intercalated ion,,True,0.0,,-0.0372,-0.0263
45684,Au4Cl24Sb3Sm1,1e84427ed1,SmSb3(AuCl6)4,"['Cl', 'Sb', 'Sm', 'Au']",32,1006.4058,3.5547,1,P1,1,triclinic,-113.4114,-1.2139,-0.0229,1D,1.2544,True,0.0,,-0.0229,-0.0117
45721,Al7Cu5O4Zr12,1e8b0f1e09,Zr12Al7Cu5O4,"['O', 'Al', 'Cu', 'Zr']",28,446.5717,6.1922,3m,R3m,160,trigonal,-201.4427,-1.1558,-0.0283,3D,0.0009,True,0.0,,-0.0283,-0.0095
45730,Cl8Pd1Pt1,1e8d5e7280,PdPtCl8,"['Cl', 'Pd', 'Pt']",10,286.1354,3.3957,2,P2,3,monoclinic,-34.3318,-0.8293,-0.2199,1D,,True,0.0,,-0.2199,-0.0022
45779,O16Re1Sr4W3,1e945e1ff9,Sr4ReW3O16,"['O', 'Sr', 'W', 'Re']",24,376.8682,5.9227,2,P2,3,monoclinic,-202.5769,-2.7222,-0.0168,intercalated ion,0.0036,True,0.0,,-0.0168,-0.0166
45828,Cs4O24Se4V4,1e9bcc31cf,CsVSeO6,"['O', 'V', 'Se', 'Cs']",36,667.2273,3.5718,222,P2_12_12_1,19,orthorhombic,-239.1761,-1.8479,-0.0416,intercalated ion,1.9265,True,0.0,,-0.0416,-0.0135
45839,Cu3O20Pr4Ru4Ti1,1e9e1b4c96,Pr4TiCu3(RuO5)4,"['O', 'Ti', 'Cu', 'Ru', 'Pr']",32,399.4054,6.3461,m,Pm,6,monoclinic,-249.5526,-2.3181,-0.0139,3D,,True,0.0,,-0.0139,-0.0139