Unnamed: 0,Composition,MaterialId,Reduced Formula,Elements,NSites,Volume,Density,Point Group,Space Group,Space Group Number,Crystal System,Corrected Energy,Formation Energy Per Atom,Decomposition Energy Per Atom,Dimensionality Cheon,Bandgap,Is Train,Decomposition Energy Per Atom All,Decomposition Energy Per Atom Relative,Decomposition Energy Per Atom MP,Decomposition Energy Per Atom MP OQMD
80662,Al1O12Ru1Tb5,35d6c55ca2,Tb5AlRuO12,"['O', 'Al', 'Ru', 'Tb']",19,251.6474,7.3554,2,C2,5,monoclinic,-159.8291,-3.3822,-0.0157,3D,0.0052,False,0.0,,-0.0157,-0.0123
80678,Au4O12Sm3Tb1,35dadea0a4,TbSm3(AuO3)4,"['O', 'Sm', 'Tb', 'Au']",20,287.9677,9.1678,m,Pm,6,monoclinic,-136.3997,-2.2569,-0.0452,3D,2.0035,False,0.0,,-0.0452,-0.0211
80696,Lu1O19Pr5U4,35de8dff63,Pr5LuU4O19,"['O', 'Pr', 'Lu', 'U']",29,417.8785,8.4864,1,P1,1,triclinic,-280.2185,-3.8833,-0.1195,3D,0.1985,True,0.0,,-0.1195,-0.0508
80709,Br18Cs1Nb6Tb1,35e18110ce,CsTb(NbBr3)6,"['Br', 'Nb', 'Cs', 'Tb']",26,806.6276,4.7092,3,R3,146,trigonal,-135.1481,-1.521,-0.0248,intercalated ion,1.1033,False,0.0,,-0.0248,-0.0038
80720,Cl2Lu1N2Pa1,35e411bbd8,LuPa(NCl)2,"['N', 'Cl', 'Lu', 'Pa']",6,126.0817,6.65,3m,R3m,160,trigonal,-48.1679,-2.2937,-0.2812,2D,1.9414,True,-0.0,,-0.2812,-0.1148
80778,F20Ho1K8Tm3,35edbf49d4,K8HoTm3F20,"['F', 'K', 'Ho', 'Tm']",32,538.3381,4.2089,m,Pm,6,monoclinic,-186.3168,-3.7873,-0.0002,intercalated ion,6.7131,True,0.0,,-0.0002,-0.0002
80781,Cl30Np1Os5,35ee326566,Np(OsCl6)5,"['Cl', 'Os', 'Np']",36,1201.6819,3.1116,1,P1,1,triclinic,-163.4885,-1.0819,-0.2059,0D,,False,0.0,,-0.2059,-0.1772
80801,Ba4Na2O11Te2,35f1f837ab,Ba4Na2Te2O11,"['O', 'Na', 'Te', 'Ba']",19,315.5188,5.4023,mm2,Amm2,38,orthorhombic,-117.5209,-2.4466,-0.1111,intercalated ion,2.2084,True,-0.0,,-0.1111,-0.0318
80820,Na4O6Pu1Sc1,35f5f0c2f0,Na4PuScO6,"['O', 'Na', 'Sc', 'Pu']",12,158.5157,4.9959,2,C2,5,monoclinic,-88.7666,-2.7642,-0.1211,intercalated ion,,True,0.0,,-0.1211,-0.0522
80827,As8La8O8Pt2Ru6,35f708431d,La4As4Ru3PtO4,"['O', 'As', 'Ru', 'La', 'Pt']",32,594.0621,7.925,222,P-42m,111,tetragonal,-251.9035,-2.1178,-0.1062,3D,0.0038,True,0.0,,-0.1062,-0.017
80851,As2Br12La12P2,35fc3a5d46,La6AsPBr6,"['P', 'As', 'Br', 'La']",28,909.0168,5.1834,222,F222,22,orthorhombic,-153.9758,-1.9627,-0.0004,3D,0.0008,True,0.0,,-0.0004,-0.0004
80852,Gd1Ho1O24Tb6W4,35fc42ddf1,Tb6GdHo(WO6)4,"['O', 'Gd', 'Tb', 'Ho', 'W']",36,469.0844,8.4785,1,P1,1,triclinic,-336.0009,-3.3042,-0.0019,3D,3.3886,False,0.0,,-0.0019,-0.0011
80854,Gd2La4O14Ta2,35fcd41a03,La2GdTaO7,"['O', 'La', 'Gd', 'Ta']",22,329.9949,7.3267,mm2,Ama2,40,orthorhombic,-225.2253,-3.8337,-0.0115,3D,3.3016,True,0.0,,-0.0115,-0.0115
80857,Br18Cs6Gd3Lu1,35fd4fc780,Cs6Gd3LuBr18,"['Br', 'Cs', 'Gd', 'Lu']",28,1143.2137,4.1868,3,R3,146,trigonal,-144.6651,-2.2506,-0.0623,intercalated ion,,True,0.0,,-0.0623,-0.049
80960,Br20La4Rb1Tl7,360cd29649,RbLa4Tl7Br20,"['Br', 'Rb', 'La', 'Tl']",32,1151.3666,5.2928,1,P1,1,triclinic,-129.7785,-1.8682,-0.0202,intercalated ion,,True,-0.0,,-0.0202,-0.0202
80975,F24Se1Tc2Te1,360ede5a91,Tc2TeSeF24,"['F', 'Se', 'Tc', 'Te']",28,484.7004,2.9412,m,Pm,6,monoclinic,-136.2001,-2.2487,-0.1306,0D,0.0005,True,0.0,,-0.1306,-0.0039
81033,In1O13Pb4Ta3,3617b48613,Ta3InPb4O13,"['O', 'In', 'Ta', 'Pb']",21,311.7109,9.0267,3m,R3m,160,trigonal,-170.9349,-2.5446,-0.0242,3D,1.4742,False,0.0,,-0.0242,-0.0241
81051,C3Cl5Ho5Tb1,361b744c2f,TbHo5C3Cl5,"['C', 'Cl', 'Tb', 'Ho']",14,297.794,6.6739,m,Cm,8,monoclinic,-87.533,-1.6474,-0.1968,3D,0.0016,True,0.0,,-0.1968,-0.0139
81060,O24P3Rb3Ta6,361cc8a412,RbTa2PO8,"['O', 'P', 'Rb', 'Ta']",36,546.6449,5.5256,3,R3,146,trigonal,-321.327,-3.118,-0.0241,intercalated ion,3.0068,True,0.0,,-0.0241,-0.0241
81092,La2Np1O24Ta8,3621381300,La2NpTa8O24,"['O', 'La', 'Ta', 'Np']",35,501.0445,7.7763,m,Cm,8,monoclinic,-357.9072,-3.4707,-0.0054,3D,0.0063,True,-0.0,,-0.0054,-0.0054
81111,F28Ho3Pt1Tb1Zr3,3624c30e9b,TbHo3Zr3PtF28,"['F', 'Zr', 'Tb', 'Ho', 'Pt']",36,554.0642,4.9583,1,P1,1,triclinic,-244.3677,-3.9097,-0.0041,3D,2.639,True,0.0,,-0.0041,-0.0024
81132,O6Os3Ta5Zr18,36286976bc,Zr18Ta5(OsO2)3,"['O', 'Zr', 'Ta', 'Os']",32,565.1956,9.4411,m,Pm,6,monoclinic,-317.588,-1.2835,-0.0331,3D,0.0016,False,0.0,,-0.0331,-0.0179
81174,Al3Ca3O14Sb1Si2,363113c9ca,Ca3Al3Si2SbO14,"['O', 'Al', 'Si', 'Ca', 'Sb']",23,283.2322,3.5359,32,P321,150,trigonal,-176.3637,-3.2547,-0.0122,intercalated ion,3.9213,True,0.0,,-0.0122,-0.0119
81175,Br18C4Cs1La1Tb9,36311634b8,CsLaTb9(C2Br9)2,"['C', 'Br', 'Cs', 'La', 'Tb']",33,1021.0843,5.1852,1,P1,1,triclinic,-176.9609,-1.9106,-0.0181,intercalated ion,0.1476,True,0.0,,-0.0181,-0.017
81179,Bi3F28Ir4Pr1,3631bcb71a,PrBi3Ir4F28,"['F', 'Pr', 'Ir', 'Bi']",36,565.1673,6.078,1,P1,1,triclinic,-192.2746,-2.4152,-0.0466,3D,0.0011,True,0.0,,-0.0466,-0.0465
81201,F20Pa3Ta1,36351a2336,Pa3TaF20,"['F', 'Ta', 'Pa']",24,444.4741,4.685,2,C2,5,monoclinic,-173.8644,-3.968,-3.0746,0D,4.1137,True,0.0,,-3.0746,-1.2642
81216,F28Pu1Re4Tb3,363729b4a6,Tb3PuRe4F28,"['F', 'Tb', 'Re', 'Pu']",36,556.125,5.9645,1,P1,1,triclinic,-248.5925,-3.2534,-0.0316,3D,,False,0.0,,-0.0316,-0.0271
81219,Br6Na2O18Pt1,3637a44b84,Na2Pt(BrO3)6,"['O', 'Na', 'Br', 'Pt']",27,403.2256,4.153,3,P3,143,trigonal,-123.7346,-0.5972,-0.049,intercalated ion,,True,0.0,,-0.049,-0.0469
81234,O36Si12Ti4Tl8,363a3192fe,TiTl2(SiO3)3,"['O', 'Si', 'Ti', 'Tl']",60,941.1176,4.8337,222,P2_12_12_1,19,orthorhombic,-466.7284,-2.8837,-0.0096,intercalated ion,,True,-0.0,,-0.0096,-0.0096
81255,Cs4F8Ir2O4,363c012f43,Cs2Ir(OF2)2,"['O', 'F', 'Cs', 'Ir']",18,367.3544,5.1171,mm2,Ama2,40,orthorhombic,-95.3405,-2.1666,-0.0719,intercalated ion,0.3574,True,0.0,,-0.0719,-0.0518
81258,Hg1O14P4U1,363c83e250,UHg(P2O7)2,"['O', 'P', 'Hg', 'U']",20,323.3308,4.0393,1,P1,1,triclinic,-154.36,-2.592,-0.0153,3D,0.5264,True,0.0,,-0.0153,-0.0153
81270,Bi5Cl2Sm10Tl1,363ef5b79f,Sm10TlBi5Cl2,"['Cl', 'Sm', 'Tl', 'Bi']",18,509.1082,9.2103,mm2,Amm2,38,orthorhombic,-90.7575,-1.0035,-0.0138,3D,,True,0.0,,-0.0138,-0.0058
81298,O10Sb2U1Zr1,3644f5c23f,ZrU(SbO5)2,"['O', 'Zr', 'Sb', 'U']",14,193.009,6.3043,2,C2,5,monoclinic,-115.9294,-2.7395,-0.0155,3D,1.4396,True,0.0,,-0.0155,-0.0155
81328,Br12C2Cs1Rb1Y6,3649ee6ca9,CsRbY6(CBr6)2,"['C', 'Br', 'Rb', 'Y', 'Cs']",22,692.1869,4.1614,1,P1,1,triclinic,-121.4492,-1.9399,-0.0547,intercalated ion,,False,0.0,,-0.0547,-0.0173
81353,Br16Ca1Cd1Ga4,364e6eff79,CaCd(GaBr4)4,"['Ca', 'Ga', 'Br', 'Cd']",22,831.9664,3.4127,1,P1,1,triclinic,-72.2748,-1.411,-0.0138,intercalated ion,2.9562,True,0.0,,-0.0138,-0.0112
81365,Gd1Ho3La2Nb2O14,364fcfcedb,La2GdHo3Nb2O14,"['O', 'Nb', 'La', 'Gd', 'Ho']",22,309.4998,7.1876,m,Pm,6,monoclinic,-209.9716,-3.7637,-0.0047,3D,2.6262,True,0.0,,-0.0047,-0.0031
81425,Bi5Cl2In1Pr10,365a8e97fa,Pr10InBi5Cl2,"['Cl', 'In', 'Pr', 'Bi']",18,543.6122,8.0633,mm2,Amm2,38,orthorhombic,-93.284,-1.0876,-0.0484,3D,0.0001,False,0.0,,-0.0484,-0.0474
81433,Br15Pt1Sc1Th5,365bd6899b,Th5ScPtBr15,"['Sc', 'Br', 'Pt', 'Th']",22,802.7996,5.3754,4mm,I4mm,107,tetragonal,-118.4662,-2.02,-0.0463,3D,0.826,True,0.0,,-0.0463,-0.03
81480,Bi1F28Lu3Zr4,36651df5a7,Lu3Zr4BiF28,"['F', 'Zr', 'Lu', 'Bi']",36,560.0952,4.8347,1,P1,1,triclinic,-250.8568,-4.047,-0.0045,3D,,True,0.0,,-0.0045,-0.0028
81515,Ge1K8O12Ti3,366b230c60,K8Ti3GeO12,"['O', 'K', 'Ti', 'Ge']",24,427.6076,2.8,m,Cm,8,monoclinic,-159.1159,-2.6105,-0.0117,2D,,True,0.0,,-0.0117,-0.0065
81560,Br7Cl5I2P2,367194b36b,P2I2Br7Cl5,"['P', 'Cl', 'Br', 'I']",16,680.6489,2.5674,1,P1,1,triclinic,-48.5935,-0.8761,-0.0747,0D,1.5928,True,0.0,,-0.0747,-0.0745
81596,Cl2In3Sn3Y10,3676679058,Y10In3Sn3Cl2,"['Cl', 'Y', 'In', 'Sn']",18,481.859,5.7224,m,Pm,6,monoclinic,-105.8524,-0.9559,-0.03,3D,0.0032,True,0.0,,-0.03,-0.0289
81609,Ba3Ce1O9Tm3,36784d65d3,Ba3CeTm3O9,"['O', 'Ba', 'Ce', 'Tm']",16,276.8848,7.214,3,R3,146,trigonal,-127.1446,-3.5935,-0.017,intercalated ion,0.0026,True,0.0,,-0.017,-0.0124
81623,Gd3La2O14Ru2Tl1,367b88b0e1,La2Gd3Tl(RuO7)2,"['O', 'Ru', 'La', 'Gd', 'Tl']",22,304.8657,7.517,m,Pm,6,monoclinic,-204.7224,-2.8382,-0.0192,3D,,True,0.0,,-0.0192,-0.0092
81627,Au4Cl8F4,367d3b6751,AuCl2F,"['F', 'Cl', 'Au']",16,463.6833,4.1094,m,Cc,9,monoclinic,-50.4161,-0.9304,-0.0102,0D,,True,0.0,,-0.0102,-0.0101
81635,F28Ho2Tb2V4,367e57e010,TbHoV2F14,"['F', 'V', 'Tb', 'Ho']",36,512.3612,4.4836,2,P2_1,4,monoclinic,-241.1841,-3.6915,-0.0356,3D,2.007,True,0.0,,-0.0356,-0.0352
81725,Br18Np3Rb2Te1,36896f7ffd,Rb2Np3TeBr18,"['Br', 'Rb', 'Te', 'Np']",24,1017.1317,3.9962,1,P1,1,triclinic,-111.8279,-1.6006,-0.1668,intercalated ion,0.0762,True,0.0,,-0.1668,-0.0025
81727,Cu3O16Tc4,3689a15bce,Cu3(TcO4)4,"['O', 'Cu', 'Tc']",23,412.3634,3.3771,1,P1,1,triclinic,-171.136,-1.6621,-0.0783,3D,0.0019,True,0.0,,-0.0783,-0.061
81750,F28Ho1Pt4Tb3,368dac2da4,Tb3HoPt4F28,"['F', 'Tb', 'Ho', 'Pt']",36,529.306,6.1301,1,P1,1,triclinic,-201.5139,-2.9229,-0.0006,3D,2.314,True,0.0,,-0.0006,-0.0006
81798,Cl2La7Pr3Tl6,369557b955,La7Pr3(Tl3Cl)2,"['Cl', 'La', 'Pr', 'Tl']",18,556.5842,8.0322,32,P312,149,trigonal,-80.3509,-0.755,-0.0404,3D,,True,0.0,,-0.0404,-0.0373
81803,Bi1Cd2Ga1O6,3695fc1b27,Cd2GaBiO6,"['O', 'Ga', 'Cd', 'Bi']",10,134.1938,7.4186,3,R3,146,trigonal,-54.5212,-1.607,-0.0362,3D,0.2913,False,0.0,,-0.0362,-0.0308
81809,Ac1F28Ir4Tb3,3696c8a598,AcTb3Ir4F28,"['F', 'Tb', 'Ir', 'Ac']",36,556.396,5.9826,1,P1,1,triclinic,-214.5836,-2.9912,-0.0592,3D,0.0015,True,0.0,,-0.0592,-0.0458
81824,Ba3F1O18Pt6Sr1,369a62386b,Ba3SrPt6O18F,"['O', 'F', 'Sr', 'Ba', 'Pt']",29,423.9941,7.7431,3,R3,146,trigonal,-185.5943,-1.7499,-0.1725,intercalated ion,,True,0.0,,-0.1725,-0.13
81838,Cu1O12Rh1Tm5,369c031363,Tm5CuRhO12,"['O', 'Cu', 'Rh', 'Tm']",19,240.6612,8.3014,2,C2,5,monoclinic,-150.5988,-3.02,-0.017,3D,0.0879,True,0.0,,-0.017,-0.016
81905,F28La4Pd1Zr3,36a8d9b37e,La4Zr3PdF28,"['F', 'Zr', 'Pd', 'La']",36,619.8862,3.9316,1,P1,1,triclinic,-244.8781,-3.9108,-0.0189,3D,2.1584,True,0.0,,-0.0189,-0.0175
81923,O12Tb5U1Zr1,36aba2b503,Tb5ZrUO12,"['O', 'Zr', 'Tb', 'U']",19,272.1952,8.0275,1,P1,1,triclinic,-177.8961,-3.9742,-0.0661,3D,0.8863,True,0.0,,-0.0661,-0.0141
81931,Bi5Cl2In1Tb10,36acf93c9e,Tb10InBi5Cl2,"['Cl', 'In', 'Tb', 'Bi']",18,489.6597,9.5628,mm2,Amm2,38,orthorhombic,-90.3422,-1.0055,-0.0327,3D,0.0039,True,0.0,,-0.0327,-0.0235
81947,Br32I4Mo4,36af3fdb3f,MoIBr8,"['Br', 'Mo', 'I']",40,1622.4861,3.5292,4,P4_1,76,tetragonal,-132.6123,-0.7688,-0.2875,1D,,True,0.0,,-0.2875,-0.0337
81964,Ca3Ir3Na3O12,36b1dbf76e,NaCaIrO4,"['O', 'Na', 'Ca', 'Ir']",21,256.9949,6.189,mm2,Amm2,38,orthorhombic,-138.6401,-2.0364,-0.0245,intercalated ion,0.0043,True,0.0,,-0.0245,-0.0211
82011,Ba4Ga4O14Ti2,36ba8e4f1a,Ba2TiGa2O7,"['O', 'Ti', 'Ga', 'Ba']",24,390.977,4.8754,2,P2_1,4,monoclinic,-176.547,-2.9873,-0.0074,intercalated ion,,True,0.0,,-0.0074,-0.0057
82074,Mg2O16Rh1Ru1Sr8,36c467090c,Sr8Mg2RuRhO16,"['O', 'Mg', 'Sr', 'Ru', 'Rh']",28,399.7466,5.0244,-4,I-4,82,tetragonal,-186.1844,-2.6308,-0.0337,intercalated ion,0.0011,False,0.0,,-0.0337,-0.0095
82077,Br12La10Pr2Pt2Ru2,36c47ee45d,La5PrRuPtBr6,"['Br', 'Ru', 'La', 'Pr', 'Pt']",28,927.5428,5.7683,1,P1,1,triclinic,-156.7004,-1.6945,-0.0268,3D,0.0028,True,-0.0,,-0.0268,-0.0264
82152,Eu1F14K3Pa2,36d1bd3b39,K3EuPa2F14,"['F', 'K', 'Eu', 'Pa']",20,300.2687,5.5153,1,P1,1,triclinic,-137.2297,-3.8908,-0.2787,intercalated ion,,False,0.0,,-0.2787,-0.0658
82165,As1Br12La11Si3Y1,36d41a43e2,La11YSi3AsBr12,"['Si', 'As', 'Br', 'Y', 'La']",28,920.3225,4.9346,2,C2,5,monoclinic,-151.4431,-1.7894,-0.0071,3D,0.0051,True,0.0,,-0.0071,-0.0036
82197,Gd2O24S4Sm6,36d9875f58,Sm3Gd(SO6)2,"['O', 'S', 'Sm', 'Gd']",36,458.048,6.2677,m,Pm,6,monoclinic,-304.6289,-3.1352,-0.0484,3D,3.3339,True,0.0,,-0.0484,-0.0002
82234,K3Nb4O12Sr1,36dfee89fe,K3SrNb4O12,"['O', 'K', 'Sr', 'Nb']",20,268.3921,4.7549,mm2,Amm2,38,orthorhombic,-164.118,-2.9658,-0.0258,intercalated ion,0.0244,True,0.0,,-0.0258,-0.0205
82265,O13Pb4Pt3Ru1,36e5cad029,RuPt3Pb4O13,"['O', 'Ru', 'Pt', 'Pb']",21,284.6728,10.0512,3m,R3m,160,trigonal,-134.282,-1.3153,-0.0657,3D,0.0031,True,0.0,,-0.0657,-0.0657
82270,In3Lu3O18Te2W1,36e6626dfe,Lu3In3Te2WO18,"['O', 'In', 'Te', 'Lu', 'W']",27,353.6306,7.4961,32,P321,150,trigonal,-198.9121,-2.5476,-0.0094,3D,2.7632,True,0.0,,-0.0094,-0.0093
82273,F7H6Li1,36e6e53b56,LiH6F7,"['H', 'Li', 'F']",14,145.1696,1.6698,1,P1,1,triclinic,-63.6975,-2.0037,-0.0671,intercalated ion,7.4129,True,0.0,,-0.0671,-0.048
82301,C2Gd3O2Tb1,36ebb2c2d5,TbGd3(CO)2,"['C', 'O', 'Gd', 'Tb']",8,124.0236,9.1941,mm2,Imm2,44,orthorhombic,-89.9733,-1.8375,-0.0501,3D,,True,0.0,,-0.0501,-0.0414
82367,Eu2F22Hf3Ta1,36f5422268,Eu2Hf3TaF22,"['F', 'Eu', 'Hf', 'Ta']",28,439.0393,5.44,m,Cm,8,monoclinic,-218.4448,-4.0742,-0.1038,3D,1.7244,False,0.0,,-0.1038,-0.0625
82372,O14Tb1W2Y5,36f6d3a2e0,TbY5(WO7)2,"['O', 'Y', 'Tb', 'W']",22,299.2239,6.6323,2,C2,5,monoclinic,-208.3667,-3.4642,-0.0025,3D,2.438,False,0.0,,-0.0025,-0.0025
82377,F20Pu3Sb1,36f78a2ce0,Pu3SbF20,"['F', 'Sb', 'Pu']",24,482.8905,4.2425,1,P1,1,triclinic,-163.9329,-3.2821,-0.2415,1D,0.0726,True,0.0,,-0.2415,-0.2393
82402,Ca5O12Sb2Sm1,36fb84a980,Ca5Sm(SbO6)2,"['O', 'Ca', 'Sb', 'Sm']",20,274.8199,4.7508,1,P1,1,triclinic,-140.7393,-2.918,-0.0115,intercalated ion,0.0022,False,0.0,,-0.0115,-0.0042
82421,F28Rh4Tb1Tm3,3701773f25,TbTm3Rh4F28,"['F', 'Rh', 'Tb', 'Tm']",36,509.1745,5.2483,1,P1,1,triclinic,-208.8737,-2.9954,-0.1561,3D,0.0023,True,0.0,,-0.1561,-0.0276
82458,As3Br16Ga4Hg11P1,3708a6fbc4,Ga4Hg11As3PBr16,"['P', 'Ga', 'As', 'Br', 'Hg']",35,1235.4884,5.4025,m,Cm,8,monoclinic,-88.5111,-0.785,-0.0142,intercalated molecule,0.975,False,0.0,,-0.0142,-0.0137
82551,O24Sb3Tm11,3717fa8ce7,Tm11(SbO8)3,"['O', 'Sb', 'Tm']",38,500.7,8.6477,1,P1,1,triclinic,-315.2838,-3.5503,-0.0025,3D,2.3379,True,0.0,,-0.0025,-0.0025
82555,Cl2Ho3Pb6Y7,3718415dd6,Y7Ho3(Pb3Cl)2,"['Cl', 'Y', 'Ho', 'Pb']",18,487.5874,8.2799,32,P312,149,trigonal,-101.4276,-0.9134,-0.0265,3D,0.0009,True,0.0,,-0.0265,-0.0207
82602,La5O12Rh1Ru1,37201efb1a,La5RuRhO12,"['O', 'Ru', 'Rh', 'La']",19,295.9736,6.1181,2,C2,5,monoclinic,-158.8402,-3.0603,-0.0216,3D,0.1555,True,0.0,,-0.0216,-0.0216
82617,Au2Cu2Lu1O8Y1,37224c0fec,YLuCu2(AuO4)2,"['O', 'Cu', 'Y', 'Lu', 'Au']",14,168.0595,9.02,2,C2,5,monoclinic,-92.224,-1.9219,-0.015,3D,,False,0.0,,-0.015,-0.0108
82620,Cl2Lu2Rb12Te8,372307085f,Rb6LuTe4Cl,"['Cl', 'Rb', 'Te', 'Lu']",24,1067.8275,3.8367,6mm,P6_3mc,186,hexagonal,-84.988,-1.4723,-0.0556,intercalated ion,,True,-0.0,,-0.0556,-0.0149
82622,K4Nb4O52P16,3723304f3f,KNbP4O13,"['O', 'P', 'K', 'Nb']",76,1296.5952,2.3764,1,P1,1,triclinic,-593.7249,-2.697,-0.0049,intercalated ion,,True,0.0,,-0.0049,-0.0049
82649,Cl24Li4Ta4,37279e87e0,LiTaCl6,"['Li', 'Cl', 'Ta']",32,903.7976,2.9441,3,R3,146,trigonal,-161.2862,-1.933,-0.0067,intercalated ion,2.9706,True,0.0,,-0.0067,-0.0044
82692,Bi2O12Ti4,372f011292,Ti2BiO6,"['O', 'Ti', 'Bi']",18,230.7575,5.7671,1,P1,1,triclinic,-149.6274,-2.8272,-0.0055,3D,0.4296,False,0.0,,-0.0055,-0.0055
82711,Na2O16Tl6W4,373250f2ba,NaTl3(WO4)2,"['O', 'Na', 'W', 'Tl']",28,479.8122,7.834,2,P2,3,monoclinic,-199.3185,-1.8391,-0.0081,intercalated ion,,False,0.0,,-0.0081,-0.008
82798,Bi3F28Sm1Tc4,3744c70f22,SmTc4Bi3F28,"['F', 'Tc', 'Sm', 'Bi']",36,570.189,4.9545,1,P1,1,triclinic,-212.1178,-2.799,-0.0872,3D,1.5934,False,0.0,,-0.0872,-0.0872
82817,Ac2F14Ru1Zr1,37487cd56b,Ac2ZrRuF14,"['F', 'Zr', 'Ru', 'Ac']",18,333.9296,4.5365,1,P1,1,triclinic,-119.6646,-3.7133,-0.0879,3D,0.0747,False,0.0,,-0.0879,-0.0323
82839,Bi3O14Sm3Tm2,374c095868,Sm3Tm2Bi3O14,"['O', 'Sm', 'Tm', 'Bi']",22,326.0934,8.3506,1,P1,1,triclinic,-168.3083,-2.9209,-0.0376,3D,,True,0.0,,-0.0376,-0.0376
82907,Li14O48Pd21,3758886b88,Li14(Pd7O16)3,"['Li', 'O', 'Pd']",83,973.6923,5.2867,m,Cm,8,monoclinic,-476.4706,-1.2461,-0.0596,intercalated ion,,True,0.0,,-0.0596,-0.0219
82928,K2O24Pd2Pt10,375c481303,KPdPt5O12,"['O', 'K', 'Pd', 'Pt']",38,502.0965,8.6843,1,P1,1,triclinic,-230.8494,-1.0213,-0.0376,3D,,False,0.0,,-0.0376,-0.015
82956,O25Sb1Ta9,3760268281,Ta9SbO25,"['O', 'Sb', 'Ta']",35,493.9554,7.2286,-4,I-4,82,tetragonal,-345.9463,-3.1828,-0.0053,3D,2.6417,True,0.0,,-0.0053,-0.0053
82963,Cl2F2I4Nb2,3761aea973,NbI2ClF,"['F', 'Cl', 'Nb', 'I']",10,338.3913,3.9372,mm2,Imm2,44,orthorhombic,-50.506,-1.6687,-0.0262,1D,1.2206,True,0.0,,-0.0262,-0.0183
82978,Li12O48Sm9Tb3Te8,37632216ec,Li12Tb3Sm9(TeO6)8,"['Li', 'O', 'Te', 'Sm', 'Tb']",80,988.9445,6.2162,2,C2,5,monoclinic,-562.1225,-2.7525,-0.0433,intercalated ion,,True,0.0,,-0.0433,-0.0391
83015,As8Ho1O18Tm3,376916772c,HoTm3(As4O9)2,"['O', 'As', 'Ho', 'Tm']",30,453.5233,5.7085,1,P1,1,triclinic,-219.0506,-2.4901,-0.0212,3D,3.1926,True,0.0,,-0.0212,-0.0211
83038,O24Pb3Tc6,376d9ca6b2,Tc2PbO8,"['O', 'Tc', 'Pb']",33,583.3179,4.5365,3m,P31m,157,trigonal,-254.7715,-1.9006,-0.1606,2D,2.9858,True,0.0,,-0.1606,-0.1605
83074,C2Cl2Tb1Y3,37747f4631,TbY3(CCl)2,"['C', 'Cl', 'Y', 'Tb']",8,158.4868,5.4543,3m,P3m1,156,trigonal,-56.2429,-1.2573,-0.1436,3D,0.0061,True,0.0,,-0.1436,-0.0049
83080,Gd2O12Ta1Y4,37751ca55c,Gd2Y4TaO12,"['O', 'Y', 'Gd', 'Ta']",19,266.1753,6.5072,1,P1,1,triclinic,-197.1599,-3.7847,-0.0045,3D,0.0022,True,0.0,,-0.0045,-0.0041
83117,Bi3F28Ho1Zr4,377a65a239,HoZr4Bi3F28,"['F', 'Zr', 'Ho', 'Bi']",36,594.7911,4.7146,1,P1,1,triclinic,-235.9743,-3.6669,-0.0113,3D,5.37,True,0.0,,-0.0113,-0.0107
83156,Cl2La6Lu1Sn6Tb3,37803b84d3,La6Tb3Lu(Sn3Cl)2,"['Cl', 'Sn', 'La', 'Tb', 'Lu']",18,524.2247,7.1852,32,P312,149,trigonal,-95.5427,-1.0971,-0.0199,3D,0.0022,True,0.0,,-0.0199,-0.0197
83238,F30Lu2Pd1Pt1Zr4,378d9c8201,Lu2Zr4PdPtF30,"['F', 'Zr', 'Pd', 'Lu', 'Pt']",38,497.6769,5.2928,2,C2,5,monoclinic,-244.2024,-3.4835,-0.0083,3D,,True,0.0,,-0.0083,-0.0082
83242,Eu2Nb1O8W1,378e1baa7c,Eu2NbWO8,"['O', 'Nb', 'Eu', 'W']",12,169.8335,6.929,-4,I-4,82,tetragonal,-119.7568,-3.0441,-0.1182,3D,0.0033,True,0.0,,-0.1182,-0.0677
83249,Bi2Eu3Lu3O14,379045fcde,Eu3Lu3(BiO7)2,"['O', 'Eu', 'Lu', 'Bi']",22,317.6814,8.4822,1,P1,1,triclinic,-187.2636,-2.9897,-0.1042,3D,,True,-0.0,,-0.1042,-0.0496
83267,F12Np1Pr3,37927140d5,Pr3NpF12,"['F', 'Pr', 'Np']",16,227.4286,6.4814,m,Pm,6,monoclinic,-118.5715,-4.2715,-0.013,3D,0.2302,False,0.0,,-0.013,-0.0125
83328,O12Rb2W3Zr1,379fc36721,Rb2Zr(WO4)3,"['O', 'Rb', 'Zr', 'W']",18,296.3646,5.6348,2,C2,5,monoclinic,-154.4748,-2.5398,-0.0269,intercalated ion,2.9089,True,0.0,,-0.0269,-0.0269
83331,F28Hf3Pr4Rh1,37a0b6177d,Pr4Hf3RhF28,"['F', 'Rh', 'Pr', 'Hf']",36,594.0902,4.8466,1,P1,1,triclinic,-252.8275,-3.9707,-0.0125,3D,,True,0.0,,-0.0125,-0.0112
83372,Ca3O12Sm1Ti4,37a611e381,Ca3SmTi4O12,"['O', 'Ca', 'Ti', 'Sm']",20,232.2441,4.6765,m,Pm,6,monoclinic,-173.505,-3.5906,-0.0129,intercalated ion,0.0015,False,0.0,,-0.0129,-0.0129
83415,Br6Ca1Pd1,37ad86aad4,CaPdBr6,"['Ca', 'Br', 'Pd']",8,281.4883,3.6924,3,R3,146,trigonal,-27.4551,-1.306,-0.1441,intercalated ion,,True,0.0,,-0.1441,-0.0144
83436,Mg2O14Rb4V4,37b20e955d,Rb2MgV2O7,"['O', 'Mg', 'V', 'Rb']",24,449.7717,3.0209,-42m,P-42_1m,113,tetragonal,-173.8765,-2.5478,-0.0219,intercalated ion,3.6629,False,0.0,,-0.0219,-0.0219
83440,Bi1F20Pa3,37b331f8ae,Pa3BiF20,"['F', 'Bi', 'Pa']",24,450.4953,4.7257,2,C2,5,monoclinic,-157.2379,-3.6073,-3.0749,0D,2.1393,True,0.0,,-3.0749,-1.2645
83488,F28In3Lu1Tc4,37bbd87190,LuIn3Tc4F28,"['F', 'Tc', 'In', 'Lu']",36,500.7995,4.7859,1,P1,1,triclinic,-207.5654,-2.7729,-0.0416,3D,1.4974,False,0.0,,-0.0416,-0.0342
83492,As1Br12Si3Sm12,37bd42af67,Sm12Si3AsBr12,"['Si', 'As', 'Br', 'Sm']",28,836.4897,5.8012,32,R32,155,trigonal,-143.9982,-1.6713,-0.0844,,0.0169,,0.0,,-0.0844,-0.0511
83507,Au1Ba2Br1F14,37c079f663,Ba2AuBrF14,"['F', 'Br', 'Ba', 'Au']",18,284.366,4.7738,1,P1,1,triclinic,-76.4926,-2.2768,-0.0473,intercalated ion,,True,0.0,,-0.0473,-0.038
83508,Br7Li1Pd1,37c07a4f13,LiPdBr7,"['Li', 'Br', 'Pd']",9,342.7224,3.2593,1,P1,1,triclinic,-26.5167,-0.8855,-0.2456,intercalated ion,,True,0.0,,-0.2456,-0.0902
83517,Ba6La1O18Pr1Te3,37c2729efb,Ba6LaPr(TeO6)3,"['O', 'Te', 'Ba', 'La', 'Pr']",29,485.9572,6.0638,mm2,Imm2,44,orthorhombic,-200.3153,-2.779,-0.0997,intercalated ion,3.2111,True,0.0,,-0.0997,-0.0322
83530,Br18C4Cs1Pr1Sm9,37c4e60b56,CsPrSm9(C2Br9)2,"['C', 'Br', 'Cs', 'Pr', 'Sm']",33,1055.696,4.8971,1,P1,1,triclinic,-176.6011,-1.8814,-0.1188,intercalated ion,0.1802,True,0.0,,-0.1188,-0.0492