Unnamed: 0,Composition,MaterialId,Reduced Formula,Elements,NSites,Volume,Density,Point Group,Space Group,Space Group Number,Crystal System,Corrected Energy,Formation Energy Per Atom,Decomposition Energy Per Atom,Dimensionality Cheon,Bandgap,Is Train,Decomposition Energy Per Atom All,Decomposition Energy Per Atom Relative,Decomposition Energy Per Atom MP,Decomposition Energy Per Atom MP OQMD
160284,Cl12Ir1Pr12Ru3,6a9e6c31e8,Pr12Ir(RuCl4)3,"['Cl', 'Ru', 'Pr', 'Ir']",28,840.5695,5.1595,32,R32,155,trigonal,-164.5476,-1.7262,-0.0134,3D,0.0025,True,0.0,,-0.0134,-0.0118
160308,Br16In1Ir1Ru1Sc12,6aa2780a49,Sc12InIrRuBr16,"['Sc', 'Br', 'Ru', 'In', 'Ir']",31,999.7449,3.6974,1,P1,1,triclinic,-174.8256,-1.6703,-0.0154,intercalated ion,0.0007,True,0.0,,-0.0154,-0.002
160375,Al6Cu2O4Ti12,6ab1908209,Ti6Al3CuO2,"['O', 'Al', 'Ti', 'Cu']",24,323.9563,4.7536,2,P2_1,4,monoclinic,-175.7137,-1.271,-0.0569,3D,0.0048,True,0.0,,-0.0569,-0.0391
160379,Al4Bi3Ga4O18Sb1,6ab23d76ac,Al4Ga4Bi3SbO18,"['O', 'Al', 'Ga', 'Sb', 'Bi']",30,383.3471,6.1662,m,Pm,6,monoclinic,-206.2812,-2.4775,-0.004,3D,2.6335,True,-0.0,,-0.004,-0.0026
160389,Ba20Ga5O44Tc7,6ab3308eb1,Ba20Ga5Tc7O44,"['O', 'Ga', 'Tc', 'Ba']",76,1268.7939,5.8699,m,Pm,6,monoclinic,-545.2332,-2.651,-0.0791,intercalated ion,,False,0.0,,-0.0791,-0.0754
160411,Ir4O24Pr6Tm2,6ab6cfbbb5,Pr3Tm(IrO6)2,"['O', 'Pr', 'Tm', 'Ir']",36,496.7039,7.8101,2,P2_1,4,monoclinic,-287.8,-2.6683,-0.064,3D,,True,0.0,,-0.064,-0.0473
160419,Ba1F14Sr1Ta2,6ab87daada,BaSrTa2F14,"['F', 'Sr', 'Ba', 'Ta']",18,263.2812,5.3788,m,Pm,6,monoclinic,-123.5972,-3.8618,-0.0001,intercalated ion,5.5282,True,0.0,,-0.0001,-0.0001
160420,Cl30Os5W1,6ab8bd41c1,Os5WCl30,"['Cl', 'W', 'Os']",36,1141.0826,3.1994,2,C2,5,monoclinic,-159.8541,-0.9806,-0.1045,0D,,True,0.0,,-0.1045,-0.1029
160436,Au1O12Tm5Zr1,6abcbcc5b7,Tm5ZrAuO12,"['O', 'Zr', 'Tm', 'Au']",19,247.8233,8.8772,1,P1,1,triclinic,-158.1734,-3.3999,-0.0364,3D,1.5266,True,0.0,,-0.0364,-0.0228
160473,Ho4Lu1Mo1O12V1,6ac2ef8f67,Ho4LuVMoO12,"['O', 'V', 'Mo', 'Ho', 'Lu']",19,249.1356,7.822,1,P1,1,triclinic,-168.3558,-3.4842,-0.0153,3D,1.687,True,0.0,,-0.0153,-0.0114
160497,Bi1O13Pb4Sb1Ta2,6ac7d8be2a,Ta2BiSbPb4O13,"['O', 'Sb', 'Ta', 'Pb', 'Bi']",21,326.6273,8.7922,m,Cm,8,monoclinic,-158.415,-2.2622,-0.0163,3D,1.4969,False,0.0,,-0.0163,-0.0162
160499,Au1F34Se1,6ac7fc81ae,AuSeF34,"['F', 'Se', 'Au']",36,689.7122,2.2195,1,P1,1,triclinic,-102.859,-0.8639,-0.3875,0D,,True,0.0,,-0.3875,-0.2747
160538,F24Np3W1,6ace2c3f15,Np3WF24,"['F', 'W', 'Np']",28,525.8973,4.2652,m,Pm,6,monoclinic,-190.2364,-3.3057,-0.0014,0D,1.1629,False,0.0,,-0.0014,-0.0007
160541,As3Br12Ge1La12,6ace470a09,La12Ge(AsBr4)3,"['Ge', 'As', 'Br', 'La']",28,937.7968,5.1759,32,R32,155,trigonal,-150.6944,-1.9044,-0.0303,,,,0.0,,-0.0303,-0.0208
160543,O10Se2Ti2,6ace913656,TiSeO5,"['O', 'Ti', 'Se']",14,198.7798,3.4555,1,P1,1,triclinic,-101.0714,-2.0578,-0.0368,3D,2.8579,True,0.0,,-0.0368,-0.0348
160582,Br4Ca1O12Sr1,6ad5febbe3,SrCa(BrO3)4,"['O', 'Ca', 'Br', 'Sr']",18,290.1286,3.659,1,P1,1,triclinic,-89.9775,-1.1311,-0.1328,intercalated ion,4.182,True,0.0,,-0.1328,-0.1156
160583,Be4Gd1Ge2O14Tb3,6ad62cd623,Tb3GdBe4(GeO7)2,"['Be', 'O', 'Ge', 'Gd', 'Tb']",24,271.5484,6.3557,m,Cm,8,monoclinic,-199.8846,-3.2679,-0.0113,intercalated ion,,True,0.0,,-0.0113,-0.0001
160584,O16Rb17Sc5,6ad6c403ad,Rb17Sc5O16,"['O', 'Sc', 'Rb']",38,878.6584,3.6545,m,Cm,8,monoclinic,-212.1285,-2.2271,-0.1107,intercalated ion,,True,0.0,,-0.1107,-0.0291
160591,Au3Cu1O12Sm4,6ad7252cec,Sm4Cu(AuO4)3,"['O', 'Cu', 'Sm', 'Au']",20,287.0016,8.3772,m,Pm,6,monoclinic,-138.0443,-2.2937,-0.0315,3D,,True,0.0,,-0.0315,-0.0215
160632,Cl12F8Tc4,6add8d9cf1,TcCl3F2,"['F', 'Cl', 'Tc']",24,629.0827,2.5589,-4,I-4,82,tetragonal,-117.6626,-1.6144,-0.0723,0D,0.0036,True,0.0,,-0.0723,-0.0695
160676,Br16Re2Se8Tc2,6ae4ddf0aa,ReTc(SeBr2)4,"['Se', 'Br', 'Tc', 'Re']",28,942.7296,4.3658,2,C2,5,monoclinic,-122.6225,-0.8162,-0.1802,0D,1.7362,True,0.0,,-0.1802,-0.0685
160696,Al4O24Pt4Ru4,6ae9539744,AlRuPtO6,"['O', 'Al', 'Ru', 'Pt']",36,374.9128,7.4256,mm2,P4_2nm,102,tetragonal,-260.1351,-1.8061,-0.0162,3D,0.0014,True,0.0,,-0.0162,-0.0162
160718,F28Hf1Ho4Mo3,6aed04d1be,Ho4HfMo3F28,"['F', 'Mo', 'Ho', 'Hf']",36,572.5575,4.8085,1,P1,1,triclinic,-248.5293,-3.7273,-0.0371,3D,,True,0.0,,-0.0371,-0.0047
160731,Bi1La2O14Pr3Ta2,6aeeddc95c,La2Pr3Ta2BiO14,"['O', 'La', 'Pr', 'Ta', 'Bi']",22,331.647,7.4874,m,Pm,6,monoclinic,-198.5025,-3.5187,-0.0094,3D,3.2187,True,0.0,,-0.0094,-0.0077
160758,Br12La7Si2Y1,6af6025ae5,La7Y(SiBr6)2,"['Si', 'Br', 'Y', 'La']",22,883.2999,3.9032,m,Pm,6,monoclinic,-115.2234,-1.9869,-0.0089,3D,0.0014,False,0.0,,-0.0089,-0.0083
160815,Cd1O6Sn1Te1,6afdfe434a,CdSnTeO6,"['O', 'Cd', 'Sn', 'Te']",9,121.9236,6.193,32,P312,149,trigonal,-53.1754,-1.7124,-0.0504,3D,1.2477,True,0.0,,-0.0504,-0.023
160834,Ge1O12Rh1Tb5,6b01d1d441,Tb5GeRhO12,"['O', 'Ge', 'Rh', 'Tb']",19,254.2121,7.5914,2,C2,5,monoclinic,-155.5003,-3.2087,-0.0347,3D,0.2535,True,0.0,,-0.0347,-0.0343
160852,Ag3Al4Br16In1,6b05415cbd,Al4InAg3Br16,"['Al', 'Br', 'Ag', 'In']",24,888.2656,3.4113,m,Pm,6,monoclinic,-83.3039,-1.2867,-0.0143,1D,,True,0.0,,-0.0143,-0.0126
160917,O14P4Pd1Sb1,6b11f71f6e,SbP4PdO14,"['O', 'P', 'Pd', 'Sb']",20,272.1962,3.5143,1,P1,1,triclinic,-144.7018,-2.2234,-0.0303,3D,0.5785,True,0.0,,-0.0303,-0.0299
160918,Br2Ge1Rh1Th2,6b121068bf,Th2GeRhBr2,"['Ge', 'Br', 'Rh', 'Th']",6,179.7059,7.387,3m,P3m1,156,trigonal,-38.8536,-1.4781,-0.052,2D,,True,0.0,,-0.052,-0.0518
160927,Br2Hf1Zr1,6b13082667,HfZrBr2,"['Br', 'Zr', 'Hf']",4,108.0623,6.6002,m,Cm,8,monoclinic,-26.7863,-1.2519,-0.0341,2D,0.0232,True,0.0,,-0.0341,-0.0033
161005,Cl2Hf1Zr1,6b21e2b1fb,HfZrCl2,"['Cl', 'Zr', 'Hf']",4,99.39,5.6908,3m,R3m,160,trigonal,-28.5217,-1.5799,-0.0396,2D,0.0288,True,0.0,,-0.0396,-0.0039
161015,Ce2F22Lu1Zr3,6b23a48d75,Ce2LuZr3F22,"['F', 'Zr', 'Ce', 'Lu']",28,442.5157,4.3035,m,Cm,8,monoclinic,-200.7383,-4.1663,-0.0177,3D,,False,-0.0,,-0.0177,-0.0168
161026,Ba2Cl4O12Sr4Te4,6b26341f47,BaSr2Te2(ClO3)2,"['O', 'Cl', 'Sr', 'Te', 'Ba']",26,537.3168,4.5409,m,Cm,8,monoclinic,-155.4803,-2.5208,-0.0052,intercalated ion,3.743,True,0.0,,-0.0052,-0.0042
161029,Ca2La1O12Pr1Ti4,6b266889bc,Ca2LaPrTi4O12,"['O', 'Ca', 'Ti', 'La', 'Pr']",20,240.0721,5.1422,m,Pm,6,monoclinic,-176.8106,-3.6062,-0.014,intercalated ion,0.0039,True,0.0,,-0.014,-0.0048
161065,Ho4O12Re1Tm1V1,6b2bc0bc38,Ho4TmVReO12,"['O', 'V', 'Ho', 'Tm', 'Re']",19,248.0418,8.4204,2,C2,5,monoclinic,-169.6182,-3.4689,-0.002,3D,0.6358,True,-0.0,,-0.002,-0.002
161105,Bi5Br2La6Pr4Sn1,6b3420e163,La6Pr4SnBi5Br2,"['Br', 'Sn', 'La', 'Pr', 'Bi']",18,564.1682,8.0073,mm2,Amm2,38,orthorhombic,-95.3855,-1.1062,-0.0096,3D,0.0044,True,0.0,,-0.0096,-0.0082
161135,Ga1O24S6Tl3,6b38a96771,Tl3Ga(SO4)6,"['O', 'S', 'Ga', 'Tl']",34,515.3667,4.0574,3,R3,146,trigonal,-211.4812,-1.7,-0.0577,3D,,True,0.0,,-0.0577,-0.0571
161143,F28Re4Tb1Tm3,6b3996a8e6,TbTm3Re4F28,"['F', 'Tb', 'Tm', 'Re']",36,521.4471,6.1859,1,P1,1,triclinic,-240.4451,-3.3079,-0.1523,3D,1.6392,True,0.0,,-0.1523,-0.0221
161177,Gd3O12Rh4Sm1,6b3fa4bb3b,SmGd3(RhO3)4,"['O', 'Rh', 'Sm', 'Gd']",20,238.73,8.5258,m,Pm,6,monoclinic,-186.4106,-2.5285,-0.0265,3D,,True,0.0,,-0.0265,-0.0214
161198,Br18C1In1Li3Zr6,6b41adf3cb,Li3Zr6InCBr18,"['Li', 'C', 'Br', 'Zr', 'In']",29,867.5261,4.0833,1,P1,1,triclinic,-148.5408,-1.7271,-0.0503,intercalated ion,1.2099,True,0.0,,-0.0503,-0.0339
161204,F20Ho5Rb2Tb1,6b4289fc34,Rb2TbHo5F20,"['F', 'Rb', 'Tb', 'Ho']",28,398.3322,6.3968,4mm,I4mm,107,tetragonal,-188.0762,-4.2978,-0.0504,intercalated ion,7.1165,True,0.0,,-0.0504,-0.0065
161208,Br24Nb1Rb8Sb2Ta1,6b43c7450c,Rb8TaNb(SbBr12)2,"['Br', 'Rb', 'Nb', 'Sb', 'Ta']",36,1376.5946,3.7621,-4,I-4,82,tetragonal,-135.4247,-1.6132,-0.0114,intercalated ion,,True,0.0,,-0.0114,-0.0066
161210,Cl1I10Pa1,6b442debfb,PaI10Cl,"['Cl', 'I', 'Pa']",12,708.4764,3.599,1,P1,1,triclinic,-37.87,-0.9389,-0.3967,1D,,True,0.0,,-0.3967,-0.3939
161212,O13Pb4Rh3Tc1,6b4458e488,TcRh3Pb4O13,"['O', 'Tc', 'Rh', 'Pb']",21,276.4119,8.6719,3m,R3m,160,trigonal,-143.1,-1.4987,-0.0632,3D,,True,-0.0,,-0.0632,-0.0631
161252,O16P4Tc2,6b4a5a0547,Tc(PO4)2,"['O', 'P', 'Tc']",22,297.5382,3.214,222,P2_12_12,18,orthorhombic,-171.2368,-2.2589,-0.0442,2D,0.4585,True,0.0,,-0.0442,-0.0442
161260,Br2Pb6Pr1Sm9,6b4aebf222,PrSm9(Pb3Br)2,"['Br', 'Pr', 'Sm', 'Pb']",18,535.7466,8.9797,mm2,Amm2,38,orthorhombic,-87.5109,-0.8174,-0.0037,3D,0.0061,True,0.0,,-0.0037,-0.0036
161277,Cl18K1Nb6Pr1,6b4d6d22a6,KPr(NbCl3)6,"['Cl', 'K', 'Nb', 'Pr']",26,695.5564,3.284,3,R3,146,trigonal,-149.3895,-1.9083,-0.0062,intercalated ion,1.0843,False,0.0,,-0.0062,-0.0062
161323,As2O5Rb4,6b5596243c,Rb4As2O5,"['O', 'As', 'Rb']",11,256.1615,3.7061,m,Cm,8,monoclinic,-58.3935,-1.8558,-0.1892,intercalated ion,,True,0.0,,-0.1892,-0.0019
161327,Bi1Na2O6Pt1,6b57059cb9,Na2BiPtO6,"['O', 'Na', 'Pt', 'Bi']",10,141.402,6.4124,3,R3,146,trigonal,-56.547,-1.4253,-0.0425,intercalated ion,0.0008,True,0.0,,-0.0425,-0.0081
161339,F22Pu2Tb1Zr3,6b583e58c2,TbPu2Zr3F22,"['F', 'Zr', 'Tb', 'Pu']",28,449.8997,4.9405,m,Cm,8,monoclinic,-214.3376,-4.0526,-0.0147,3D,,True,0.0,,-0.0147,-0.0138
161430,F2O4Os2,6b668cbd52,OsO2F,"['O', 'F', 'Os']",8,105.1863,7.6163,m,Cc,9,monoclinic,-59.2458,-1.647,-0.0465,3D,0.0192,True,0.0,,-0.0465,-0.0385
161442,Nb5O18Pb3W1,6b68c52dcd,Nb5Pb3WO18,"['O', 'Nb', 'W', 'Pb']",27,394.2701,6.5616,1,P1,1,triclinic,-234.8279,-2.6356,-0.0058,3D,,True,0.0,,-0.0058,-0.0008
161455,F22Li2O2Sn6,6b6b3c04af,LiSn3OF11,"['Li', 'O', 'F', 'Sn']",32,493.4274,3.958,1,P1,1,triclinic,-168.0322,-2.7565,-0.0132,intercalated ion,3.1109,True,0.0,,-0.0132,-0.0115
161541,Ba8Cl1P5,6b7905bbde,Ba8P5Cl,"['P', 'Cl', 'Ba']",14,482.8416,4.4328,-4,I-4,82,tetragonal,-61.552,-1.2347,-0.0138,intercalated ion,1.1634,True,0.0,,-0.0138,-0.0132
161550,Ac1Cl3S24,6b7aefd63c,Ac(S8Cl)3,"['S', 'Cl', 'Ac']",28,891.4619,2.0544,3m,R3m,160,trigonal,-131.829,-0.8174,-0.3973,0D,,False,0.0,,-0.3973,-0.3973
161596,La2O14Sb2Sm3Tl1,6b829e4794,La2Sm3Tl(SbO7)2,"['O', 'Sb', 'La', 'Sm', 'Tl']",22,323.0789,7.1997,m,Pm,6,monoclinic,-170.8724,-3.0433,-0.0098,3D,2.15,False,0.0,,-0.0098,-0.0097
161607,Ga4O20Sr8Tb1Y3,6b84947ac9,Sr8TbY3(GaO5)4,"['O', 'Ga', 'Sr', 'Y', 'Tb']",36,571.2106,5.0161,1,P1,1,triclinic,-262.7704,-3.1708,-0.0015,intercalated ion,3.1648,True,0.0,,-0.0015,-0.0015
161634,Br18Mo1Pa1V2,6b898430cd,PaV2MoBr18,"['V', 'Br', 'Mo', 'Pa']",22,879.9145,3.5236,1,P1,1,triclinic,-97.3489,-1.3344,-0.2116,0D,,True,0.0,,-0.2116,-0.0018
161659,B3Cl12P1Tb12,6b8d71af8b,Tb12B3PCl12,"['B', 'P', 'Cl', 'Tb']",28,664.7325,5.9852,32,R32,155,trigonal,-155.2559,-1.8575,-0.0205,3D,,True,-0.0,,-0.0205,-0.0024
161676,Cs4Mg2O14V4,6b8f221119,Cs2MgV2O7,"['O', 'Mg', 'V', 'Cs']",24,487.5514,3.4331,-42m,P-42_1m,113,tetragonal,-173.4001,-2.5421,-0.0176,intercalated ion,3.6393,True,0.0,,-0.0176,-0.0176
161698,Al2Cl4Cs2Se2,6b93394917,CsAlSeCl2,"['Al', 'Cl', 'Se', 'Cs']",10,365.4185,2.8152,2,P2_1,4,monoclinic,-42.6806,-1.9013,-0.039,intercalated ion,3.4618,False,0.0,,-0.039,-0.0014
161743,Br12C2Cs1Rb1Sm4Tb2,6b9bbbd641,CsRbTb2Sm4(CBr6)2,"['C', 'Br', 'Rb', 'Cs', 'Sm', 'Tb']",22,723.5574,4.8666,1,P1,1,triclinic,-110.8242,-1.9413,-0.0876,intercalated ion,,True,0.0,,-0.0876,-0.0395
161770,Ho1Mo1O8Re1,6ba02c2cb1,HoReMoO8,"['O', 'Mo', 'Ho', 'Re']",11,200.4409,4.7641,3,P3,143,trigonal,-95.6408,-2.5622,-0.0518,2D,,False,0.0,,-0.0518,-0.0518
161774,F16K4Np3Tm1,6ba0b525df,K4TmNp3F16,"['F', 'K', 'Tm', 'Np']",24,374.0502,5.9501,m,Pm,6,monoclinic,-167.3018,-3.7066,-0.0502,intercalated ion,0.0004,True,0.0,,-0.0502,-0.0449
161790,Bi3Cl2In3Sm10,6ba3e4d676,Sm10In3Bi3Cl2,"['Cl', 'In', 'Sm', 'Bi']",18,505.5984,8.3615,m,Pm,6,monoclinic,-87.2431,-0.9131,-0.0189,3D,,True,0.0,,-0.0189,-0.0108
161800,Br12Na1Pr5Pt1Y1,6ba6601a58,NaPr5YPtBr12,"['Na', 'Br', 'Y', 'Pr', 'Pt']",20,733.5096,4.4606,1,P1,1,triclinic,-98.3153,-2.0454,-0.0104,intercalated ion,0.0021,True,0.0,,-0.0104,-0.0096
161808,Ac1O12Sr3Ti4,6ba88135e4,Sr3AcTi4O12,"['O', 'Ti', 'Sr', 'Ac']",20,249.5922,5.8102,2,C2,5,monoclinic,-172.1798,-3.6016,-0.0349,intercalated ion,0.0031,True,0.0,,-0.0349,-0.0338
161809,As8Bi1Ho3O18,6ba8901f86,Ho3Bi(As4O9)2,"['O', 'As', 'Ho', 'Bi']",30,471.0675,5.6088,1,P1,1,triclinic,-212.4582,-2.2828,-0.027,3D,3.2765,True,0.0,,-0.027,-0.0199
161812,Ce2Cu1O2P2Zn1,6ba8e6e437,Ce2ZnCu(PO)2,"['O', 'P', 'Cu', 'Zn', 'Ce']",8,128.4072,6.5064,-42m,P-4m2,115,tetragonal,-54.0978,-2.0188,-0.076,3D,0.0006,True,0.0,,-0.076,-0.0059
161833,Cl30Os5Te1,6bac2d0033,Te(OsCl6)5,"['Cl', 'Te', 'Os']",36,1182.7819,3.0077,2,C2,5,monoclinic,-147.7795,-0.9179,-0.1572,0D,,True,0.0,,-0.1572,-0.1352
161866,Br2S1Sm1Y1,6bb25b8263,SmYSBr2,"['S', 'Br', 'Y', 'Sm']",5,151.6901,4.7196,3m,R3m,160,trigonal,-29.5468,-2.1903,-0.0438,2D,,False,0.0,,-0.0438,-0.0024
161873,Ce1F28Tb3Zr4,6bb3cdc1c8,Tb3CeZr4F28,"['F', 'Zr', 'Ce', 'Tb']",36,588.1949,4.2735,1,P1,1,triclinic,-259.6187,-4.2242,-0.0033,3D,0.1912,True,0.0,,-0.0033,-0.0012
161904,Al4Ca1Eu2O12Sm1,6bb8c69097,CaSmEu2Al4O12,"['O', 'Al', 'Ca', 'Sm', 'Eu']",20,214.1382,6.1593,m,Pm,6,monoclinic,-170.2446,-3.4289,-0.0458,intercalated ion,0.0003,True,0.0,,-0.0458,-0.0417
161939,Ag6Ho1N1O11,6bbf238af1,HoAg6NO11,"['N', 'O', 'Ag', 'Ho']",19,260.4441,6.3894,3m,R3m,160,trigonal,-103.3974,-1.0029,-0.0137,3D,0.0015,True,0.0,,-0.0137,-0.0136
161976,La11Li12O48Sm1W8,6bc508f37b,Li12La11Sm(WO6)8,"['Li', 'O', 'La', 'Sm', 'W']",80,1016.7321,6.5333,222,F222,22,orthorhombic,-664.6962,-3.0196,-0.0297,intercalated ion,,True,0.0,,-0.0297,-0.0254
161983,Ba6Cd1O15Pd4,6bc68a53a9,Ba6CdPd4O15,"['O', 'Pd', 'Cd', 'Ba']",26,419.511,6.3413,32,R32,155,trigonal,-159.6692,-2.0113,-0.1239,intercalated ion,1.4601,True,-0.0,,-0.1239,-0.0331
162003,Eu2Nb1O12Y4,6bc9913353,Eu2Y4NbO12,"['O', 'Y', 'Nb', 'Eu']",19,267.9076,5.8539,1,P1,1,triclinic,-183.5393,-3.5586,-0.0326,3D,,True,0.0,,-0.0326,-0.0048
162052,Au1Ba10Br1O30Re6,6bd0e4db0c,Ba10Re6AuBrO30,"['O', 'Br', 'Ba', 'Re', 'Au']",48,860.0587,6.2698,3m,P31m,157,trigonal,-376.3492,-2.6905,-0.0217,intercalated ion,,True,0.0,,-0.0217,-0.0193
162055,Ca12O56Pr2Sr6V14,6bd19d55ef,Sr3Ca6PrV7O28,"['O', 'Ca', 'V', 'Sr', 'Pr']",90,1403.0137,3.4295,m,Cc,9,monoclinic,-722.6791,-3.0517,-0.0174,intercalated ion,,True,0.0,,-0.0174,-0.0162
162058,B4Br12Ho11Tm1,6bd228aa82,Ho11Tm(BBr3)4,"['B', 'Br', 'Ho', 'Tm']",28,699.2848,7.0889,2,C2,5,monoclinic,-143.4317,-1.5067,-0.0926,3D,0.0048,True,0.0,,-0.0926,-0.0517
162060,Br1Cl7Pt2,6bd255d201,Pt2BrCl7,"['Cl', 'Br', 'Pt']",10,285.8847,4.1719,1,P1,1,triclinic,-35.2239,-0.8505,-0.094,1D,,False,0.0,,-0.094,-0.0026
162073,Bi1Nb1O14P4,6bd4620eed,NbBi(P2O7)2,"['O', 'P', 'Nb', 'Bi']",20,311.1666,3.4675,1,P1,1,triclinic,-157.9668,-2.6525,-0.009,3D,2.3309,False,0.0,,-0.009,-0.009
162139,Ce1Gd5O12Ru1,6bde673463,CeGd5RuO12,"['O', 'Ru', 'Ce', 'Gd']",19,270.8994,7.4748,1,P1,1,triclinic,-210.9187,-3.4713,-0.0129,3D,0.909,True,0.0,,-0.0129,-0.003
162144,Br18Cs6Ir1Rh1Sc2,6bdf1b348d,Cs6Sc2IrRhBr18,"['Sc', 'Br', 'Rh', 'Cs', 'Ir']",28,1046.6626,4.1578,3m,P3m1,156,trigonal,-113.1918,-1.7674,-0.019,intercalated ion,1.3167,True,0.0,,-0.019,-0.0143
162199,Cs12F2Te8Tl2,6be8d4b142,Cs6TlTe4F,"['F', 'Te', 'Cs', 'Tl']",24,1070.1338,4.752,6mm,P6_3mc,186,hexagonal,-76.723,-1.3452,-0.0394,intercalated ion,,True,0.0,,-0.0394,-0.0252
162203,Eu1O18P6Ti1,6be969d56e,EuTi(PO3)6,"['O', 'P', 'Ti', 'Eu']",26,437.7798,2.5553,32,P312,149,trigonal,-213.9306,-2.8538,-0.0201,3D,,True,0.0,,-0.0201,-0.0189
162265,F18Pb4Rb2,6bf4366a31,RbPb2F9,"['F', 'Rb', 'Pb']",24,431.8448,5.1592,m,Cc,9,monoclinic,-109.0321,-2.4089,-0.0973,intercalated ion,1.9626,True,0.0,,-0.0973,-0.0176
162283,Cl1Cu2Se2,6bf87c5dc2,Cu2Se2Cl,"['Cl', 'Cu', 'Se']",5,112.2926,4.7389,1,P1,1,triclinic,-19.9335,-0.5789,-0.0408,3D,,True,0.0,,-0.0408,-0.0142
162367,Cl2Ga2Rb12Te8,6c06a5b313,Rb6GaTe4Cl,"['Cl', 'Ga', 'Rb', 'Te']",24,1002.2883,3.7389,6mm,P6_3mc,186,hexagonal,-77.962,-1.304,-0.0911,intercalated ion,1.8763,False,0.0,,-0.0911,-0.053
162375,B1F24N7,6c08631c5b,BN7F24,"['B', 'N', 'F']",32,573.3173,1.6359,1,P1,1,triclinic,-145.9297,-1.0944,-0.3578,0D,,False,0.0,,-0.3578,-0.0067
162385,Br24Mo6W6,6c09e51906,MoWBr4,"['Br', 'Mo', 'W']",36,1183.9689,5.044,mm2,Cmc2_1,36,orthorhombic,-216.5055,-0.9555,-0.0073,2D,2.154,True,0.0,,-0.0073,-0.0073
162392,Br18Re4Tc2,6c0b67b998,Re2TcBr9,"['Br', 'Tc', 'Re']",24,844.1625,4.6799,2,P2_1,4,monoclinic,-119.566,-0.8167,-0.1563,1D,,False,0.0,,-0.1563,-0.0261
162448,F6O4Sn1,6c14715d2d,Sn(O2F3)2,"['O', 'F', 'Sn']",11,194.5107,2.5329,m,Cm,8,monoclinic,-51.0363,-1.4333,-0.0659,intercalated ion,,False,0.0,,-0.0659,-0.0346
162479,Bi4In2O18Te3,6c18939010,In2Bi4(TeO6)3,"['O', 'In', 'Te', 'Bi']",27,393.0449,7.3357,2,C2,5,monoclinic,-166.1269,-1.7248,-0.0386,3D,2.1755,True,0.0,,-0.0386,-0.0366
162540,Br16Os2Sc12Si1,6c22dcd014,Sc12Si(OsBr8)2,"['Si', 'Sc', 'Br', 'Os']",31,983.6105,3.7588,1,P1,1,triclinic,-181.962,-1.6742,-0.0334,intercalated ion,0.1831,True,0.0,,-0.0334,-0.0154
162545,Gd1Ho6O24Tb1W4,6c23ca5bc5,TbGdHo6(WO6)4,"['O', 'Gd', 'Tb', 'Ho', 'W']",36,461.9997,8.7164,2,P2,3,monoclinic,-336.1845,-3.3166,-0.0047,3D,3.4505,False,0.0,,-0.0047,-0.0036
162604,N6Na2O18Tl4,6c2d6679a0,NaTl2(NO3)3,"['N', 'O', 'Na', 'Tl']",30,464.749,4.4146,mm2,Pmc2_1,26,orthorhombic,-184.6651,-1.1161,-0.0005,intercalated ion,2.7793,True,0.0,,-0.0005,-0.0003
162612,Ag6C1O11Y1,6c2efb46dc,YAg6CO11,"['C', 'O', 'Y', 'Ag']",19,258.5211,5.9358,3m,R3m,160,trigonal,-108.6266,-1.1321,-0.035,3D,0.0021,True,0.0,,-0.035,-0.0349
162614,C3Cl5Gd1Ho2Tb3,6c2f5456f0,Tb3GdHo2C3Cl5,"['C', 'Cl', 'Gd', 'Tb', 'Ho']",14,305.6035,6.3964,m,Cm,8,monoclinic,-96.9473,-1.6343,-0.1579,3D,0.0008,True,0.0,,-0.1579,-0.0129
162657,Gd1O14Pr4Ta2Tb1,6c38556e74,TbPr4GdTa2O14,"['O', 'Pr', 'Gd', 'Tb', 'Ta']",22,323.473,7.5241,1,P1,1,triclinic,-213.6778,-3.7662,-0.0095,3D,3.2868,True,0.0,,-0.0095,-0.0092
162668,F8Ga1H5,6c393a8114,GaH5F8,"['H', 'F', 'Ga']",14,163.087,2.3088,1,P1,1,triclinic,-64.7542,-2.105,-0.0573,2D,6.5059,True,0.0,,-0.0573,-0.0396
162707,F34Rh1S1,6c3ff7de07,RhSF34,"['F', 'S', 'Rh']",36,668.0512,1.9411,1,P1,1,triclinic,-112.3108,-0.995,-0.2728,0D,,True,0.0,,-0.2728,-0.2725
162711,Ca1Cu4In1O8,6c40792b65,CaIn(CuO2)4,"['O', 'Ca', 'Cu', 'In']",14,153.4889,5.8104,-4,I-4,82,tetragonal,-81.7982,-1.5043,-0.0024,intercalated ion,0.002,True,0.0,,-0.0024,-0.0024
162712,Nb2O13Pb4Sn2,6c40b747ae,Nb2Sn2Pb4O13,"['O', 'Nb', 'Sn', 'Pb']",21,312.0198,7.7701,mm2,Imm2,44,orthorhombic,-154.335,-2.2352,-0.0082,3D,1.4808,True,-0.0,,-0.0082,-0.0082
162717,Ag1Eu1Mo2O8,6c41b9e750,EuAg(MoO4)2,"['O', 'Mo', 'Ag', 'Eu']",12,165.0788,5.8313,-4,I-4,82,tetragonal,-99.4934,-2.0912,-0.042,3D,0.0021,True,0.0,,-0.042,-0.0221
162748,Mg2O14Pb4Si4,6c457c804f,MgSi2Pb2O7,"['O', 'Mg', 'Si', 'Pb']",24,356.2946,5.6567,-42m,P-42_1m,113,tetragonal,-173.5592,-2.689,-0.0002,3D,2.991,True,0.0,,-0.0002,-0.0002
162820,Br4Li3O12Rb1,6c53a9c0c2,RbLi3(BrO3)4,"['Li', 'O', 'Br', 'Rb']",20,302.9164,3.3872,2,C2,5,monoclinic,-92.0469,-0.9704,-0.1248,intercalated ion,,False,0.0,,-0.1248,-0.1225
162822,Cl1Pr18Si15Y2,6c54484cb4,Pr18Y2Si15Cl,"['Si', 'Cl', 'Y', 'Pr']",36,954.2168,5.518,1,P1,1,triclinic,-208.7017,-0.7357,-0.0221,3D,0.0001,True,-0.0,,-0.0221,-0.019
162851,Cl18Lu1Nb6Tl1,6c58230249,LuNb6TlCl18,"['Cl', 'Nb', 'Lu', 'Tl']",26,675.5944,3.871,3,R3,146,trigonal,-148.4008,-1.8322,-0.012,intercalated ion,,True,0.0,,-0.012,-0.0029
162868,In1O1Sn5Zr10,6c5b523ddd,Zr10InSn5O,"['O', 'Zr', 'In', 'Sn']",17,364.1468,7.4631,m,Cm,8,monoclinic,-127.3049,-0.8283,-0.0097,3D,0.0033,True,0.0,,-0.0097,-0.0097
162879,Au1Br12La12Tc3,6c5cbf10ef,La12Tc3AuBr12,"['Br', 'Tc', 'La', 'Au']",28,949.2728,5.4519,32,R32,155,trigonal,-155.9601,-1.526,-0.0677,3D,0.0043,False,-0.0,,-0.0677,-0.0667
162900,Br18C4Cs1Pr1Y9,6c614a3694,CsPrY9(C2Br9)2,"['C', 'Br', 'Y', 'Cs', 'Pr']",33,1015.6002,4.1861,1,P1,1,triclinic,-192.9158,-1.8991,-0.057,intercalated ion,0.1702,True,0.0,,-0.057,-0.031
162906,Ac1Ba9Cl6La2Si14,6c62cee37b,Ba9AcLa2(Si7Cl3)2,"['Si', 'Cl', 'Ba', 'La', 'Ac']",32,965.1613,4.0374,mm2,Pmm2,25,orthorhombic,-155.988,-1.1775,-0.0389,intercalated ion,,False,-0.0,,-0.0389,-0.0369