Unnamed: 0,Composition,MaterialId,Reduced Formula,Elements,NSites,Volume,Density,Point Group,Space Group,Space Group Number,Crystal System,Corrected Energy,Formation Energy Per Atom,Decomposition Energy Per Atom,Dimensionality Cheon,Bandgap,Is Train,Decomposition Energy Per Atom All,Decomposition Energy Per Atom Relative,Decomposition Energy Per Atom MP,Decomposition Energy Per Atom MP OQMD
52523,Cl14I2Sn4,22f4db0d72,Sn2ICl7,"['Cl', 'Sn', 'I']",20,921.6581,2.207,2,P2_1,4,monoclinic,-71.6711,-1.3353,-0.0018,0D,2.6571,False,0.0,,-0.0018,-0.0018
52598,F20La3Pr1Rb8,230365cff3,Rb8La3PrF20,"['F', 'Rb', 'La', 'Pr']",32,646.0918,4.167,m,Pm,6,monoclinic,-184.9408,-3.7274,-0.0037,intercalated ion,6.4144,True,0.0,,-0.0037,-0.0033
52600,F28Lu1Tc4Tm3,230385d98e,Tm3LuTc4F28,"['F', 'Tc', 'Tm', 'Lu']",36,514.316,5.1843,1,P1,1,triclinic,-234.3355,-3.3729,-0.2122,3D,1.5971,True,0.0,,-0.2122,-0.0802
52621,Ag2O24P8Rb4,2306349499,Rb2Ag(PO3)4,"['O', 'P', 'Rb', 'Ag']",38,615.0466,3.2112,m,Cc,9,monoclinic,-263.72,-2.423,-0.0416,intercalated ion,0.4745,True,0.0,,-0.0416,-0.0403
52632,O48Pb2Sr9Te8Tl1Zn12,23071b4abb,Sr9TlZn12Te8(PbO24)2,"['O', 'Zn', 'Sr', 'Te', 'Tl', 'Pb']",80,1112.4066,5.9427,2,C2,5,monoclinic,-471.9257,-2.1146,-0.0262,intercalated ion,,False,-0.0,,-0.0262,-0.0015
52635,Ca1La1O12Pr2Rh4,230779a09e,CaLaPr2(RhO3)4,"['O', 'Ca', 'Rh', 'La', 'Pr']",20,250.5794,7.0537,m,Pm,6,monoclinic,-153.342,-2.4003,-0.0031,intercalated ion,0.0011,False,-0.0,,-0.0031,-0.0031
52719,Bi1F28Hf4Tb3,23178d2b3e,Tb3Hf4BiF28,"['F', 'Tb', 'Hf', 'Bi']",36,567.3174,5.654,1,P1,1,triclinic,-260.1022,-4.1377,-0.0127,3D,,True,0.0,,-0.0127,-0.0114
52771,Cu2O2P2Sm1U1,2321618791,SmUCu2(PO)2,"['O', 'P', 'Cu', 'Sm', 'U']",8,118.6422,8.5297,4mm,P4mm,99,tetragonal,-60.0157,-1.8856,-0.0551,3D,0.0011,True,0.0,,-0.0551,-0.0337
52815,F5Li1Pb1,2327e650bb,LiPbF5,"['Li', 'F', 'Pb']",7,106.2004,4.8336,-4,I-4,82,tetragonal,-32.9655,-2.5409,-0.0657,intercalated ion,2.8506,True,0.0,,-0.0657,-0.0094
52817,F28Pr3Y1Zr4,23282f022a,Pr3YZr4F28,"['F', 'Y', 'Zr', 'Pr']",36,609.4417,3.8377,1,P1,1,triclinic,-260.327,-4.2168,-0.0035,3D,6.0297,True,0.0,,-0.0035,-0.0034
52881,Br12Ge1Na1U2,2336365ff6,NaU2GeBr12,"['Na', 'Ge', 'Br', 'U']",16,613.6334,4.1417,2,C2,5,monoclinic,-74.0088,-1.6211,-0.0222,intercalated ion,,False,0.0,,-0.0222,-0.0213
52930,Cd4Cs8Ge4O16,233edd735d,Cs2CdGeO4,"['O', 'Ge', 'Cd', 'Cs']",32,705.6617,4.8462,2,Cmc2_1,36,orthorhombic,-168.8385,-1.8851,-0.0137,intercalated ion,2.261,True,0.0,,-0.0137,-0.0137
52947,Cl6Cu1Pa1,23429744d8,PaCuCl6,"['Cl', 'Cu', 'Pa']",8,272.2847,3.0938,2,C2,5,monoclinic,-40.4724,-1.9709,-0.0398,1D,,True,-0.0,,-0.0398,-0.0301
53016,Br12Pr12Pt2Ru2,234d1ca2a5,Pr6RuPtBr6,"['Br', 'Ru', 'Pr', 'Pt']",28,909.0548,5.9221,222,F222,22,orthorhombic,-152.6295,-1.6045,-0.0039,3D,0.0031,True,0.0,,-0.0039,-0.001
53052,F5O1Ta1V1,23524fc2d0,TaVOF5,"['O', 'F', 'V', 'Ta']",8,128.7189,4.4233,1,P1,1,triclinic,-62.3715,-3.3656,-0.0457,3D,1.7558,True,0.0,,-0.0457,-0.0168
53099,Br2Cl4Eu2,235b450887,EuBrCl2,"['Cl', 'Br', 'Eu']",8,247.1021,4.0693,m,Pm,6,monoclinic,-49.7577,-2.3132,-0.1228,3D,0.0117,True,0.0,,-0.1228,-0.063
53130,Eu2F20K8Sm1Y1,23615567cb,K8SmEu2YF20,"['F', 'K', 'Y', 'Sm', 'Eu']",32,568.9661,3.6071,m,Pm,6,monoclinic,-194.8698,-3.6246,-0.0282,intercalated ion,0.0952,True,0.0,,-0.0282,-0.0079
53225,Ag4Br26Cl2,2371f0bf56,Ag2Br13Cl,"['Cl', 'Br', 'Ag']",32,1528.183,2.8033,2,P2_1,4,monoclinic,-75.8602,-0.571,-0.3404,2D,,True,0.0,,-0.3404,-0.232
53232,F34P1S1,2372ce550c,PSF34,"['F', 'P', 'S']",36,664.0684,1.7729,1,P1,1,triclinic,-116.5561,-1.1671,-0.2707,0D,,True,0.0,,-0.2707,-0.2707
53233,Bi3F28Sb1Tc4,2373258d19,Tc4Bi3SbF28,"['F', 'Tc', 'Sb', 'Bi']",36,572.6545,4.8502,1,P1,1,triclinic,-204.0843,-2.5923,-0.0758,3D,,True,0.0,,-0.0758,-0.0758
53240,Ac2Br4O16Sb10,2373ef0ec4,AcSb5(BrO4)2,"['O', 'Br', 'Sb', 'Ac']",32,619.5508,6.023,222,P222_1,17,orthorhombic,-200.6512,-2.0439,-0.0612,intercalated ion,,True,0.0,,-0.0612,-0.0297
53315,As1La2O2Rh2Sb1,2380e72e0b,La2SbAs(RhO)2,"['O', 'As', 'Rh', 'Sb', 'La']",8,156.7518,7.5457,4mm,P4mm,99,tetragonal,-60.4153,-2.1413,-0.0545,3D,0.0013,True,0.0,,-0.0545,-0.0034
53359,Cl6La5Si14Sm7,23864f1033,La5Sm7(Si7Cl3)2,"['Si', 'Cl', 'La', 'Sm']",32,750.4954,5.2061,mm2,Pmm2,25,orthorhombic,-184.7286,-1.2492,-0.022,3D,,False,0.0,,-0.022,-0.0108
53361,F28Ho4Ir3Ru1,238657842a,Ho4Ir3RuF28,"['F', 'Ru', 'Ho', 'Ir']",36,524.4375,5.9191,1,P1,1,triclinic,-216.3192,-3.0188,-0.0426,3D,0.0014,True,0.0,,-0.0426,-0.0421
53365,Br4Ca2O12,2386d5bd99,Ca(BrO3)2,"['O', 'Ca', 'Br']",18,277.6182,3.5396,m,Cc,9,monoclinic,-89.9427,-1.1116,-0.2651,intercalated ion,4.1031,True,0.0,,-0.2651,-0.2311
53369,Bi4F28Pt2Ru2,23875ceed8,Bi2RuPtF14,"['F', 'Ru', 'Pt', 'Bi']",36,561.0546,5.8015,2,P2_1,4,monoclinic,-181.6377,-2.274,-0.0385,3D,0.1451,True,0.0,,-0.0385,-0.0384
53408,Bi4F28Ir1Zr3,238e04e0c8,Zr3Bi4IrF28,"['F', 'Zr', 'Ir', 'Bi']",36,593.052,5.1345,1,P1,1,triclinic,-217.4839,-3.1645,-0.0204,3D,,True,0.0,,-0.0204,-0.0203
53466,Ir3O24Pr8Rh1,2399783498,Pr8Ir3RhO24,"['O', 'Rh', 'Pr', 'Ir']",36,532.5469,6.8312,1,P1,1,triclinic,-285.0185,-2.615,-0.0539,3D,0.002,True,0.0,,-0.0539,-0.0503
53476,Bi2La6O20Se4,239b4ad2f4,La3Bi(SeO5)2,"['O', 'Se', 'La', 'Bi']",32,549.854,5.6993,2,C2,5,monoclinic,-235.6149,-2.6649,-0.0287,3D,3.6391,True,0.0,,-0.0287,-0.0281
53583,Bi1O2Pb5Sc10,23ac1546fc,Sc10BiPb5O2,"['O', 'Sc', 'Pb', 'Bi']",18,405.185,7.0757,mm2,Fmm2,42,orthorhombic,-116.2284,-1.1419,-0.0098,3D,0.0023,True,0.0,,-0.0098,-0.0097
53604,Bi3O16Sb4Tm1,23af6aa716,TmBi3(SbO4)4,"['O', 'Sb', 'Tm', 'Bi']",24,350.5748,7.2892,1,P1,1,triclinic,-162.5446,-2.1131,-0.0091,3D,,True,0.0,,-0.0091,-0.0089
53609,Gd2O14Pr3Sm1Ta2,23b002ccd7,Pr3SmGd2Ta2O14,"['O', 'Pr', 'Sm', 'Gd', 'Ta']",22,321.436,7.612,1,P1,1,triclinic,-223.1812,-3.7718,-0.0097,3D,3.1383,True,0.0,,-0.0097,-0.0097
53672,Al12Ca5Cd1F54K6,23ba79bcd9,K6Ca5Al12CdF54,"['F', 'Al', 'K', 'Ca', 'Cd']",78,1048.7659,3.0037,1,P1,1,triclinic,-461.729,-3.7942,-0.001,intercalated ion,,True,0.0,,-0.001,-0.0009
53673,Br18Lu1Rb1Ta6,23ba8c1615,RbLu(TaBr3)6,"['Br', 'Rb', 'Lu', 'Ta']",26,778.5626,5.9386,3,R3,146,trigonal,-144.8511,-1.4899,-0.0171,intercalated ion,1.4472,False,0.0,,-0.0171,-0.0052
53679,F13K5,23bc0cce58,K5F13,"['F', 'K']",18,334.4532,2.1968,-4,I-4,82,tetragonal,-64.565,-1.898,-0.0922,intercalated ion,,False,0.0,,-0.0922,-0.0024
53680,O16Ti1Tm4V5,23bc7f000a,Tm4TiV5O16,"['O', 'Ti', 'V', 'Tm']",26,319.1193,6.4227,2,P2,3,monoclinic,-235.4352,-3.2711,-0.0051,3D,1.2821,True,0.0,,-0.0051,-0.0041
53691,Ac1Br6La11Si14,23bd61cbea,AcLa11(Si7Br3)2,"['Si', 'Br', 'La', 'Ac']",32,846.8136,5.1525,mm2,Pmm2,25,orthorhombic,-181.9093,-1.1786,-0.0237,3D,0.0034,False,0.0,,-0.0237,-0.0198
53699,Gd1Lu1O24Pr6W4,23becce52a,Pr6GdLu(WO6)4,"['O', 'Pr', 'Gd', 'Lu', 'W']",36,521.701,7.3112,1,P1,1,triclinic,-334.1638,-3.2305,-0.0151,3D,inf,True,0.0,,-0.0151,-0.0143
53717,B1Cl3H1K1,23c0cbc691,KBHCl3,"['H', 'B', 'Cl', 'K']",6,154.8915,1.6861,3m,R3m,160,trigonal,-25.4156,-1.4479,-0.0215,intercalated ion,4.9771,True,0.0,,-0.0215,-0.0071
53724,Be2F12In2Tb1Y1,23c18309fe,TbYBe2In2F12,"['Be', 'F', 'Y', 'In', 'Tb']",18,261.0378,4.6022,m,Pm,6,monoclinic,-111.7306,-3.595,-0.014,intercalated ion,4.1616,True,0.0,,-0.014,-0.0089
53852,O19Pr2Sm3U5,23d3cb0c22,Pr2Sm3U5O19,"['O', 'Pr', 'Sm', 'U']",29,414.6666,8.9182,1,P1,1,triclinic,-286.1775,-3.8618,-0.075,3D,0.0003,False,-0.0,,-0.075,-0.0433
53865,O24P8Sm1U1,23d59e8c11,SmU(PO3)8,"['O', 'P', 'Sm', 'U']",34,456.8058,3.7084,1,P1,1,triclinic,-274.6343,-2.8402,-0.0026,3D,0.1275,True,0.0,,-0.0026,-0.0026
53977,Br10La1Pr5Tc1,23e7702547,LaPr5TcBr10,"['Br', 'Tc', 'La', 'Pr']",17,642.2906,4.4997,1,P1,1,triclinic,-87.7164,-1.8909,-0.0327,3D,0.0111,True,-0.0,,-0.0327,-0.0305
54066,Ce6F30Ho1Tb1,23f6996ec1,TbCe6HoF30,"['F', 'Ce', 'Tb', 'Ho']",38,603.5428,4.7722,2,C2,5,monoclinic,-259.9807,-4.1532,-0.0074,3D,,True,0.0,,-0.0074,-0.0073
54067,F24Tc2U2,23f7159f84,UTcF12,"['F', 'Tc', 'U']",28,503.7222,3.7186,mm2,Pmn2_1,31,orthorhombic,-173.2218,-3.0015,-0.0064,0D,0.0024,True,0.0,,-0.0064,-0.0019
54072,F1O11Sm6U1,23f7ba3764,Sm6UO11F,"['O', 'F', 'Sm', 'U']",19,293.4128,7.5563,1,P1,1,triclinic,-170.7396,-3.9367,-0.0308,3D,0.8963,True,0.0,,-0.0308,-0.0208
54132,Al1As6Nb3O24,24020d427a,Nb3Al(AsO4)6,"['O', 'Al', 'As', 'Nb']",34,533.8713,3.5434,3,R3,146,trigonal,-255.94,-2.2113,-0.0323,3D,2.9679,True,0.0,,-0.0323,-0.0159
54302,Ca2O12Tm1V4Y1,241f5556e9,Ca2YTmV4O12,"['O', 'Ca', 'V', 'Y', 'Tm']",20,228.6586,5.3286,1,P1,1,triclinic,-173.1133,-3.1224,-0.0039,intercalated ion,1.0043,True,0.0,,-0.0039,-0.003
54367,Ag1Ce1O18Ta6,242830f475,CeTa6AgO18,"['O', 'Ag', 'Ce', 'Ta']",26,345.6184,7.7913,m,Pm,6,monoclinic,-252.1047,-3.1973,-0.0149,3D,0.0043,True,-0.0,,-0.0149,-0.0149
54397,F12O16Pa4S4,242b8c60d7,PaSO4F3,"['O', 'F', 'S', 'Pa']",36,714.3158,3.5715,222,P2_12_12_1,19,orthorhombic,-266.8741,-3.0601,-0.467,1D,2.9214,True,0.0,,-0.467,-0.467
54456,Cl35Pd1,24332d4c93,PdCl35,"['Cl', 'Pd']",36,1307.6172,1.7109,1,P1,1,triclinic,-90.2171,-0.565,-0.4908,0D,,True,0.0,,-0.4908,-0.4563
54491,Eu1O8Sr2V2,24382cd109,Sr2EuV2O8,"['O', 'V', 'Sr', 'Eu']",13,188.6747,4.9029,3m,R3m,160,trigonal,-114.5678,-3.3189,-0.3162,intercalated ion,0.0005,False,0.0,,-0.3162,-0.2875
54551,Br12Ca1Pr5Rh1Tb1,2440f56f08,CaTbPr5RhBr12,"['Ca', 'Br', 'Rh', 'Pr', 'Tb']",20,736.3007,4.4322,1,P1,1,triclinic,-98.1399,-2.0294,-0.0111,intercalated ion,0.0101,False,0.0,,-0.0111,-0.0082
54592,Bi1Br6Lu1O18,2449f2f5a6,LuBi(BrO3)6,"['O', 'Br', 'Lu', 'Bi']",26,498.6551,3.8341,3,P3,143,trigonal,-128.2735,-0.8068,-0.1267,3D,3.2308,True,0.0,,-0.1267,-0.1029
54625,Ho1O14Pr5U2,244fee0611,Pr5HoU2O14,"['O', 'Pr', 'Ho', 'U']",22,344.1715,7.5725,1,P1,1,triclinic,-205.5887,-3.8749,-0.1113,,,,0.0,,-0.1113,-0.0608
54635,B6O18Pr5Sm1,2450f67630,Pr5Sm(BO3)6,"['B', 'O', 'Pr', 'Sm']",30,370.171,5.4178,1,P1,1,triclinic,-261.5196,-3.4586,-0.0021,3D,4.875,True,0.0,,-0.0021,-0.0015
54701,Ba1La3O19Os6,245b6df3d4,BaLa3Os6O19,"['O', 'Ba', 'La', 'Os']",29,393.032,8.4474,3,R3,146,trigonal,-244.0537,-2.2742,-0.0418,intercalated ion,0.0024,True,0.0,,-0.0418,-0.0402
54708,Cl3Pu1S24,245c7223c6,Pu(S8Cl)3,"['S', 'Cl', 'Pu']",28,827.8314,2.2464,3m,R3m,160,trigonal,-139.6669,-0.735,-0.3935,0D,,True,0.0,,-0.3935,-0.3905
54732,Br2Cs12Se8Y2,24604a17cd,Cs6YSe4Br,"['Se', 'Br', 'Y', 'Cs']",24,1063.4956,4.0037,6mm,P6_3mc,186,hexagonal,-93.5463,-1.6095,-0.0328,intercalated ion,2.3497,True,0.0,,-0.0328,-0.0122
54749,Br35Mg1,24631538a0,MgBr35,"['Mg', 'Br']",36,1793.7135,2.6115,1,P1,1,triclinic,-79.4141,-0.5728,-0.4147,intercalated ion,,False,0.0,,-0.4147,-0.4146
54850,F14Hf1Pu2Re1,247370d2ed,Pu2HfReF14,"['F', 'Hf', 'Re', 'Pu']",18,299.6893,6.1984,1,P1,1,triclinic,-142.4869,-3.5994,-0.0199,3D,,False,0.0,,-0.0199,-0.0179
54861,Ba2O18Rb8Ti6,2474b7b8ac,Rb4BaTi3O9,"['O', 'Ti', 'Rb', 'Ba']",34,689.9418,3.691,2,C2,5,monoclinic,-249.0921,-2.9698,-0.0001,intercalated ion,3.8949,True,0.0,,-0.0001,-0.0001
54878,Cl6Pu1Ru1,24777b2e38,PuRuCl6,"['Cl', 'Ru', 'Pu']",8,219.5751,4.2183,3,R3,146,trigonal,-48.3755,-1.7178,-0.0202,2D,0.1337,True,0.0,,-0.0202,-0.0087
54887,O6Pb2Se1Te1,2478559636,TePb2SeO6,"['O', 'Se', 'Te', 'Pb']",10,173.6809,6.8547,m,Pm,6,monoclinic,-59.0865,-1.5334,-0.0295,1D,2.5778,True,0.0,,-0.0295,-0.0221
54899,O13Pb1Rh1Ru3Tl3,247a58efe7,Tl3Ru3RhPbO13,"['O', 'Ru', 'Rh', 'Tl', 'Pb']",21,276.9621,8.6004,3m,R3m,160,trigonal,-138.7274,-1.3533,-0.0372,3D,0.0098,True,0.0,,-0.0372,-0.0343
54944,Gd3O12Sm3Te1,2481e5b607,Sm3Gd3TeO12,"['O', 'Te', 'Sm', 'Gd']",19,279.7422,7.375,1,P1,1,triclinic,-184.992,-3.4784,-0.0219,3D,2.2833,True,0.0,,-0.0219,-0.0165
54956,Gd3La2Nb2O14Sm1,2485081b9b,La2SmGd3Nb2O14,"['O', 'Nb', 'La', 'Sm', 'Gd']",22,319.0126,6.8174,m,Pm,6,monoclinic,-228.1654,-3.7215,-0.0119,3D,2.4673,True,-0.0,,-0.0119,-0.0072
55025,Ba1O24Sr7Ta1Ti7,249054c810,BaSr7TaTi7O24,"['O', 'Ti', 'Sr', 'Ba', 'Ta']",40,501.5021,5.4656,3m,R3m,160,trigonal,-340.907,-3.5321,-0.0104,intercalated ion,0.0146,True,-0.0,,-0.0104,-0.0049
55119,O16Os3Ru1Sr4,249ef6f257,Sr4Os3RuO16,"['O', 'Sr', 'Ru', 'Os']",24,371.3264,5.7161,2,P2,3,monoclinic,-181.3079,-2.1844,-0.0494,intercalated ion,0.0047,True,0.0,,-0.0494,-0.0402
55147,F28Tc4Tm3Y1,24a3ec731b,YTm3Tc4F28,"['F', 'Y', 'Tc', 'Tm']",36,518.2615,4.8691,1,P1,1,triclinic,-236.1134,-3.3682,-0.2104,3D,1.6102,False,0.0,,-0.2104,-0.0847
55157,Au1Br1Ca1F12,24a7277510,CaAuBrF12,"['F', 'Ca', 'Br', 'Au']",15,264.3662,3.4228,1,P1,1,triclinic,-58.0064,-1.8768,-0.0238,intercalated ion,,True,0.0,,-0.0238,-0.0207
55182,Br1La8Si15Sm12,24aca50e16,La8Sm12Si15Br,"['Si', 'Br', 'La', 'Sm']",36,944.7353,6.0055,1,P1,1,triclinic,-205.6423,-0.7365,-0.0008,3D,,True,0.0,,-0.0008,-0.0006
55221,Bi1F12Pr3,24b62857f3,Pr3BiF12,"['F', 'Pr', 'Bi']",16,224.8554,6.3487,m,Pm,6,monoclinic,-105.2823,-4.007,-0.0034,3D,5.4936,True,0.0,,-0.0034,-0.0034
55228,Br18C4Cs1Gd1Ho9,24b6ec4252,CsGdHo9(C2Br9)2,"['C', 'Br', 'Cs', 'Gd', 'Ho']",33,1008.508,5.3691,1,P1,1,triclinic,-185.1336,-1.8948,-0.1271,intercalated ion,,True,0.0,,-0.1271,-0.0282
55261,Ba2O8Rb12,24bc5d47d4,Rb6BaO4,"['O', 'Rb', 'Ba']",22,581.1603,4.0809,6mm,P6_3mc,186,hexagonal,-86.8955,-1.4412,-0.0004,intercalated ion,1.4104,True,0.0,,-0.0004,-0.0004
55309,O13Os1Pb3Ru3Tl1,24c548b27a,TlOsRu3Pb3O13,"['O', 'Ru', 'Os', 'Tl', 'Pb']",21,282.5805,8.9756,m,Cm,8,monoclinic,-148.2143,-1.4924,-0.0148,3D,0.0056,True,0.0,,-0.0148,-0.0145
55386,Nb11O58Ta13,24d290d014,Ta13Nb11O58,"['O', 'Nb', 'Ta']",82,1205.7228,5.9251,m,Cm,8,monoclinic,-814.7593,-3.2014,-0.0105,2D,,True,0.0,,-0.0105,-0.0104
55409,Ir3O4Pd5Ti16,24d6a3e86d,Ti16Ir3Pd5O4,"['O', 'Ti', 'Pd', 'Ir']",28,402.698,7.994,3m,R3m,160,trigonal,-234.7797,-1.2945,-0.0318,3D,0.0016,True,0.0,,-0.0318,-0.0152
55426,B1Br35,24db81979b,BBr35,"['B', 'Br']",36,1662.5203,2.8041,1,P1,1,triclinic,-83.5535,-0.5439,-0.4408,0D,,False,-0.0,,-0.4408,-0.4407
55433,Bi3O14Tb5,24dc483c96,Tb5Bi3O14,"['O', 'Tb', 'Bi']",22,322.8397,8.464,1,P1,1,triclinic,-168.5422,-2.9286,-0.0674,3D,1.4798,True,0.0,,-0.0674,-0.0361
55434,Ce5O16Pa1Zr2,24dc68a85d,Ce5Zr2PaO16,"['O', 'Zr', 'Ce', 'Pa']",24,319.7314,7.1154,222,C222,21,orthorhombic,-231.26,-3.9924,-0.0455,3D,0.0005,True,-0.0,,-0.0455,-0.0455
55474,Br10La3Pr3Ru1,24e273c695,La3Pr3RuBr10,"['Br', 'Ru', 'La', 'Pr']",17,650.6995,4.4392,1,P1,1,triclinic,-88.3136,-1.9717,-0.0135,3D,0.2697,True,-0.0,,-0.0135,-0.0135
55524,Ba4O1Si10Sr6,24ea4479c1,Ba4Sr6Si10O,"['O', 'Si', 'Sr', 'Ba']",21,585.6185,3.89,m,Cm,8,monoclinic,-91.4288,-0.6864,-0.0263,intercalated ion,,True,0.0,,-0.0263,-0.0237
55554,Hf2O12Te2Zn2,24f025877f,HfZnTeO6,"['O', 'Zn', 'Te', 'Hf']",18,219.6159,7.0696,-42m,P-42_1m,113,tetragonal,-131.4993,-2.4113,-0.0437,3D,2.5622,False,-0.0,,-0.0437,-0.0345
55569,Br20La1Np3Tl8,24f281218e,LaNp3(Tl2Br5)4,"['Br', 'La', 'Tl', 'Np']",32,1174.126,5.7746,m,Pm,6,monoclinic,-145.7738,-1.5738,-0.0179,intercalated ion,,True,0.0,,-0.0179,-0.0154
55582,Al1Gd5O12Os1,24f4676033,Gd5AlOsO12,"['O', 'Al', 'Gd', 'Os']",19,261.2357,7.5989,2,C2,5,monoclinic,-208.7705,-3.3652,-0.0227,3D,,True,0.0,,-0.0227,-0.0148
55632,Cl13Ga2I1Te2,24fcbde329,Ga2Te2ICl13,"['Cl', 'Ga', 'Te', 'I']",18,692.1459,2.357,1,P1,1,triclinic,-60.9243,-1.2793,-0.0182,0D,2.9185,False,0.0,,-0.0182,-0.007
55682,Br12Ir2La12Ru1Tc1,25045bf04a,La12TcIr2RuBr12,"['Br', 'Tc', 'Ru', 'La', 'Ir']",28,930.4111,5.7276,2,C2,5,monoclinic,-162.3064,-1.6471,-0.0193,3D,,True,0.0,,-0.0193,-0.0193
55742,C3Cl5Gd1Tb5,250dc665fd,Tb5GdC3Cl5,"['C', 'Cl', 'Gd', 'Tb']",14,304.6548,6.3508,m,Cm,8,monoclinic,-96.9285,-1.6255,-0.1591,3D,0.0092,True,-0.0,,-0.1591,-0.015
55758,Bi2Br10Hg8Se4,251095c04e,Hg4BiSe2Br5,"['Se', 'Br', 'Hg', 'Bi']",24,843.9523,6.1734,2,P2_1,4,monoclinic,-59.2693,-0.7795,-0.0104,3D,1.8764,True,0.0,,-0.0104,-0.0074
55762,Cl1H4I1La2,2511322ae1,La2H4ICl,"['H', 'Cl', 'I', 'La']",8,160.3985,4.5986,3m,R3m,160,trigonal,-37.4975,-1.3353,-0.0853,2D,,True,0.0,,-0.0853,-0.0502
55779,B4Cs3Li4O30P8Tl1,2514047874,Cs3Li4TlB4(P4O15)2,"['Li', 'B', 'O', 'P', 'Cs', 'Tl']",50,680.2612,3.422,1,P1,1,triclinic,-366.883,-2.7147,-0.0038,intercalated ion,,True,0.0,,-0.0038,0.0
55852,Cs4F8O4Tc2,25214b25b2,Cs2Tc(OF2)2,"['O', 'F', 'Tc', 'Cs']",18,340.431,4.6027,mm2,Ama2,40,orthorhombic,-105.765,-2.5766,-0.0297,intercalated ion,,True,0.0,,-0.0297,-0.0289
55883,Gd2Ho4O12Os1,2527921f21,Gd2Ho4OsO12,"['O', 'Gd', 'Ho', 'Os']",19,262.8882,8.568,1,P1,1,triclinic,-183.4453,-3.4927,-0.0212,3D,0.0017,True,0.0,,-0.0212,-0.0176
55903,Br18C1Cs3Hf6K1,252b1e71b0,Cs3KHf6CBr18,"['C', 'K', 'Br', 'Cs', 'Hf']",29,1050.6305,4.6768,1,P1,1,triclinic,-156.0354,-1.8553,-0.0558,intercalated ion,,True,0.0,,-0.0558,-0.0218
55964,F28Ho1Ir4Tb3,25367f341e,Tb3HoIr4F28,"['F', 'Tb', 'Ho', 'Ir']",36,531.0464,6.0741,1,P1,1,triclinic,-214.809,-2.9847,-0.0471,3D,0.0009,True,0.0,,-0.0471,-0.047
55997,F8Hg2Rb1,253ba7b299,RbHg2F8,"['F', 'Rb', 'Hg']",11,233.6271,4.5392,2,C2,5,monoclinic,-35.404,-1.684,-0.0928,intercalated ion,,True,0.0,,-0.0928,-0.0579
55999,Hf5O2Zn12Zr7,253bd0a073,Hf5Zr7Zn12O2,"['O', 'Zn', 'Zr', 'Hf']",26,436.0761,8.9407,1,P1,1,triclinic,-153.1847,-0.7135,-0.0155,3D,0.0042,True,0.0,,-0.0155,-0.0147
56023,F28La4Mo2Pt2,253f49e4dc,La2MoPtF14,"['F', 'Mo', 'La', 'Pt']",36,599.5818,4.624,2,P2_1,4,monoclinic,-223.9999,-3.2473,-0.0251,3D,,True,-0.0,,-0.0251,-0.0246
56026,Al2Br16Ga6,253fce598f,AlGa3Br8,"['Al', 'Ga', 'Br']",24,868.3958,3.3478,222,P222_1,17,orthorhombic,-81.4358,-1.2327,-0.0174,intercalated ion,3.3349,True,0.0,,-0.0174,-0.0164
56043,In2La5O18Tl4Y1,2543ba2c2c,La5YTl4In2O18,"['O', 'Y', 'In', 'La', 'Tl']",30,491.6,7.1562,1,P1,1,triclinic,-215.2601,-2.67,-0.0235,3D,1.46,True,0.0,,-0.0235,-0.0198
56073,O8Rh1Sb2V1,2546fbf379,VSb2RhO8,"['O', 'V', 'Rh', 'Sb']",12,138.5889,6.2948,mm2,Imm2,44,orthorhombic,-87.1219,-1.9027,-0.0019,3D,0.0805,False,0.0,,-0.0019,-0.0019
56206,F36Pa1Th1,255e88496c,ThPaF36,"['F', 'Th', 'Pa']",38,700.3214,2.7197,1,P1,1,triclinic,-141.9438,-1.479,-0.887,intercalated molecule,,True,0.0,,-0.887,-0.5058
56243,Ba3Lu3O9Y1,2564c8e50a,Ba3YLu3O9,"['O', 'Y', 'Ba', 'Lu']",16,266.6738,7.2841,3,R3,146,trigonal,-128.4086,-3.6307,-0.0054,intercalated ion,,False,0.0,,-0.0054,-0.0004
56267,Ac2F14Ir1Ti1,2569d9645a,Ac2TiIrF14,"['F', 'Ti', 'Ir', 'Ac']",18,309.3863,5.1528,1,P1,1,triclinic,-115.8864,-3.5639,-0.1009,3D,,False,0.0,,-0.1009,-0.0474
56380,Bi2O16Sb5Ta1,257e16a855,TaBi2Sb5O16,"['O', 'Sb', 'Ta', 'Bi']",24,333.1663,7.2952,2,P2,3,monoclinic,-168.9147,-2.061,-0.0031,3D,2.0826,True,-0.0,,-0.0031,-0.0031
56395,O24Tb2Tm3W4Y3,2580955f87,Tb2Y3Tm3(WO6)4,"['O', 'Y', 'Tb', 'Tm', 'W']",36,459.5449,7.9883,1,P1,1,triclinic,-332.1012,-3.3173,-0.0041,3D,3.6495,True,0.0,,-0.0041,-0.0041
56413,Br18Cs6Np1Sm3,2584c5d5e9,Cs6Sm3NpBr18,"['Br', 'Cs', 'Sm', 'Np']",28,1153.4717,4.2091,3,R3,146,trigonal,-122.5857,-2.1659,-0.0437,intercalated ion,0.2164,False,-0.0,,-0.0437,-0.0427
56416,F3Pr1S24,25851bb122,Pr(S8F)3,"['F', 'S', 'Pr']",28,781.6885,2.0552,3m,R3m,160,trigonal,-136.4087,-0.9507,-0.3204,0D,,True,0.0,,-0.3204,-0.3204
56475,Br18Cs6In3P1,258ec780d5,Cs6In3PBr18,"['P', 'Br', 'In', 'Cs']",28,1084.5458,3.9979,3m,P3m1,156,trigonal,-92.6046,-1.575,-0.0488,intercalated ion,2.1482,True,0.0,,-0.0488,-0.0487
56496,Ce1F28Ho2Pt3Y2,259230ccaa,CeY2Ho2Pt3F28,"['F', 'Y', 'Ce', 'Ho', 'Pt']",36,546.5628,5.3623,1,P1,1,triclinic,-216.712,-3.2485,-0.0059,3D,1.2094,True,0.0,,-0.0059,-0.0059
56508,Br35V1,2594108403,VBr35,"['V', 'Br']",36,1793.7135,2.6362,1,P1,1,triclinic,-88.6594,-0.619,-0.4878,0D,,False,0.0,,-0.4878,-0.4372
56522,In1O24P6Ta3,2596e6d860,Ta3In(PO4)6,"['O', 'P', 'In', 'Ta']",34,505.605,4.0314,3,R3,146,trigonal,-288.7742,-2.9182,-0.0222,3D,3.6619,True,0.0,,-0.0222,-0.0099
56628,As3Br18Lu1Rb6,25a93ee15a,Rb6Lu(AsBr6)3,"['As', 'Br', 'Rb', 'Lu']",28,1030.1687,3.7893,3m,P3m1,156,trigonal,-98.7285,-1.6029,-0.0466,intercalated ion,,True,0.0,,-0.0466,-0.0306
56649,Ga7O4Pd1Ti12,25abce962a,Ti12Ga7PdO4,"['O', 'Ti', 'Ga', 'Pd']",24,324.9973,6.2993,3,R3,146,trigonal,-173.3005,-1.3494,-0.051,3D,0.0046,True,0.0,,-0.051,-0.0502
56662,In1O13Pb4W3,25ae01687b,InPb4W3O13,"['O', 'In', 'W', 'Pb']",21,310.5227,9.1076,3m,R3m,160,trigonal,-161.739,-1.9495,-0.0239,3D,0.3569,True,0.0,,-0.0239,-0.0226