Unnamed: 0,Composition,MaterialId,Reduced Formula,Elements,NSites,Volume,Density,Point Group,Space Group,Space Group Number,Crystal System,Corrected Energy,Formation Energy Per Atom,Decomposition Energy Per Atom,Dimensionality Cheon,Bandgap,Is Train,Decomposition Energy Per Atom All,Decomposition Energy Per Atom Relative,Decomposition Energy Per Atom MP,Decomposition Energy Per Atom MP OQMD
162959,Ca2O24Ru8Sm2,6c6aad8fcd,CaSm(RuO3)4,"['O', 'Ca', 'Ru', 'Sm']",36,432.6453,6.039,mm2,Pmn2_1,31,orthorhombic,-278.4553,-2.0017,-0.0201,intercalated ion,0.0005,True,0.0,,-0.0201,-0.0201
162971,As1B3Br12Pr12,6c6cdd32f5,Pr12B3AsBr12,"['B', 'As', 'Br', 'Pr']",28,842.1703,5.4363,32,R32,155,trigonal,-146.3217,-1.5932,-0.0167,3D,0.016,True,-0.0,,-0.0167,-0.0167
163020,Br18Nb6Rb1Tb1,6c7663ce19,RbTb(NbBr3)6,"['Br', 'Rb', 'Nb', 'Tb']",26,799.1121,4.6549,3,R3,146,trigonal,-135.0757,-1.5149,-0.027,intercalated ion,1.0931,True,0.0,,-0.027,-0.0175
163095,O12Pr5Ru1Sn1,6c8412344f,Pr5SnRuO12,"['O', 'Ru', 'Sn', 'Pr']",19,293.6496,6.3126,2,C2,5,monoclinic,-155.7849,-3.1169,-0.0035,3D,0.1709,True,0.0,,-0.0035,-0.0035
163099,Cl1Ho4Pr4S11,6c850cbc9f,Pr4Ho4S11Cl,"['S', 'Cl', 'Pr', 'Ho']",20,462.3093,5.7883,m,Pm,6,monoclinic,-132.8117,-2.4004,-0.0063,3D,,True,0.0,,-0.0063,-0.0063
163147,Ce2F22Hf3Y1,6c8d88c7a0,Ce2YHf3F22,"['F', 'Y', 'Ce', 'Hf']",28,440.934,4.9808,m,Cm,8,monoclinic,-208.7637,-4.2324,-0.0089,3D,0.0951,True,0.0,,-0.0089,-0.008
163338,As2Br12La11Si2Y1,6cabe03427,La11YSi2(AsBr6)2,"['Si', 'As', 'Br', 'Y', 'La']",28,919.4572,5.0238,2,C2,5,monoclinic,-152.0508,-1.8384,-0.0077,3D,0.0018,True,0.0,,-0.0077,-0.004
163419,Bi3F28Ho1Rh4,6cbbf08d33,HoBi3Rh4F28,"['F', 'Rh', 'Ho', 'Bi']",36,541.6266,5.3206,1,P1,1,triclinic,-186.6896,-2.4294,-0.0384,3D,0.0018,True,0.0,,-0.0384,-0.0355
163431,Br10Hg8Ho2Se4,6cbdd538d8,HoHg4Se2Br5,"['Se', 'Br', 'Ho', 'Hg']",24,821.6434,6.163,2,P2_1,4,monoclinic,-69.7243,-1.1574,-0.0322,3D,2.0687,True,0.0,,-0.0322,-0.0056
163451,As2H4O8Tl2,6cc0351f43,TlAs(HO2)2,"['H', 'O', 'As', 'Tl']",16,230.6276,4.9726,mm2,Fdd2,43,orthorhombic,-90.5214,-1.4578,-0.0374,intercalated ion,,True,0.0,,-0.0374,-0.0007
163486,O14Pr2Ta2Tb3Y1,6cc5da4945,Tb3Pr2YTa2O14,"['O', 'Y', 'Pr', 'Tb', 'Ta']",22,308.4577,7.7164,m,Pm,6,monoclinic,-207.182,-3.8302,-0.0229,3D,3.5481,True,0.0,,-0.0229,-0.0211
163553,Bi4O18Pr2Ta2Ti2,6cd103ab57,PrTaTiBi2O9,"['O', 'Ti', 'Pr', 'Ta', 'Bi']",28,385.3391,8.0297,2,P2_1,4,monoclinic,-235.7129,-2.9293,-0.0067,3D,2.702,True,-0.0,,-0.0067,-0.0037
163577,B1Br18Hf3K4Zr3,6cd5521781,K4Hf3Zr3BBr18,"['B', 'K', 'Br', 'Zr', 'Hf']",29,959.3863,4.1793,1,P1,1,triclinic,-149.5694,-1.8438,-0.0569,0D,,True,-0.0,,-0.0569,-0.0397
163613,Lu3O24Pr2Tb3W4,6cd9598100,Tb3Pr2Lu3(WO6)4,"['O', 'Pr', 'Tb', 'Lu', 'W']",36,470.0147,8.4891,1,P1,1,triclinic,-326.6337,-3.3062,-0.0144,3D,,True,0.0,,-0.0144,-0.0144
163622,O20Pr8Ti1V3,6cdb563e0e,Pr8TiV3O20,"['O', 'Ti', 'V', 'Pr']",32,492.129,5.5605,m,Pm,6,monoclinic,-283.1009,-3.4609,-0.0032,3D,1.7594,True,0.0,,-0.0032,-0.0032
163638,Ba1O8,6cdd067e24,BaO8,"['O', 'Ba']",9,163.7563,2.6904,1,P1,1,triclinic,-48.3274,-0.7583,-0.026,intercalated ion,0.5065,True,0.0,,-0.026,-0.0207
163646,La4O14Ta2Tm1Y1,6cde296859,La4YTmTa2O14,"['O', 'Y', 'La', 'Tm', 'Ta']",22,323.2643,7.1882,m,Pm,6,monoclinic,-208.4966,-3.8556,-0.0115,3D,,True,0.0,,-0.0115,-0.0115
163659,Cu1O12Ru1Tb5,6ce051661a,Tb5CuRuO12,"['O', 'Cu', 'Ru', 'Tb']",19,254.7112,7.5053,2,C2,5,monoclinic,-153.6225,-3.0369,-0.0195,3D,0.0026,True,0.0,,-0.0195,-0.0079
163668,Au1F24Tc3,6ce1c0c2c8,Tc3AuF24,"['F', 'Tc', 'Au']",28,435.2855,3.6124,m,Pm,6,monoclinic,-136.8721,-2.0229,-0.0543,0D,0.0006,True,-0.0,,-0.0543,-0.0272
163678,Bi2Lu1O14Tb5,6ce2c06ca9,Tb5Lu(BiO7)2,"['O', 'Tb', 'Lu', 'Bi']",22,312.6336,8.5597,1,P1,1,triclinic,-175.2557,-3.2051,-0.0743,3D,1.3398,True,0.0,,-0.0743,-0.0321
163728,Ba6O18Sc4Te2,6cead7b774,Ba3Sc2TeO9,"['O', 'Sc', 'Te', 'Ba']",30,454.2445,5.6551,6mm,P6_3mc,186,hexagonal,-225.6574,-3.1155,-0.0872,intercalated ion,2.9171,True,-0.0,,-0.0872,-0.0273
163735,O24Sm2Tb1W4Y5,6cebfaa095,TbSm2Y5(WO6)4,"['O', 'Y', 'Sm', 'Tb', 'W']",36,472.6175,7.1096,2,P2,3,monoclinic,-335.2597,-3.2853,-0.0008,3D,3.6386,True,0.0,,-0.0008,-0.0008
163758,Hg1O25Pb5Ta8,6cf11597b6,Ta8Hg(PbO5)5,"['O', 'Ta', 'Hg', 'Pb']",39,603.7397,8.4827,1,P1,1,triclinic,-348.8238,-2.8563,-0.0091,3D,2.292,True,0.0,,-0.0091,-0.0089
163817,Br18C1Cs2Ti1Zr6,6cfaf506f2,Cs2Zr6TiCBr18,"['C', 'Ti', 'Br', 'Zr', 'Cs']",28,873.24,4.3951,1,P1,1,triclinic,-150.0114,-1.7981,-0.0671,intercalated ion,0.0031,True,0.0,,-0.0671,-0.0293
163906,O12Sm1Sr3Ti4,6d0a794d2c,Sr3SmTi4O12,"['O', 'Ti', 'Sr', 'Sm']",20,243.3659,5.4359,2,C2,5,monoclinic,-172.2641,-3.576,-0.0011,intercalated ion,0.0027,True,0.0,,-0.0011,-0.0008
163917,As1Br2La2Rh1,6d0c3c0fdc,La2AsRhBr2,"['As', 'Br', 'Rh', 'La']",6,186.7298,5.473,3m,P3m1,156,trigonal,-35.9924,-1.8038,-0.0721,2D,0.4424,True,0.0,,-0.0721,-0.0592
163925,F28Rh4Sm1Tm3,6d0d6de857,SmTm3Rh4F28,"['F', 'Rh', 'Sm', 'Tm']",36,515.6762,5.1546,1,P1,1,triclinic,-208.803,-2.9911,-0.1542,3D,0.0013,True,0.0,,-0.1542,-0.0257
163934,Ga1O13Pb4W3,6d0e81542b,GaPb4W3O13,"['O', 'Ga', 'W', 'Pb']",21,299.0559,9.2064,3m,R3m,160,trigonal,-162.4784,-1.9715,-0.0121,3D,0.2434,True,0.0,,-0.0121,-0.0101
163946,F20Ru1Sb3,6d1102fb6a,Sb3RuF20,"['F', 'Ru', 'Sb']",24,402.8632,3.4884,2,C2,5,monoclinic,-118.4632,-2.4405,-0.0039,0D,,True,-0.0,,-0.0039,-0.0024
163958,F12Gd3Np1,6d12f27f85,Gd3NpF12,"['F', 'Gd', 'Np']",16,213.151,7.2975,m,Pm,6,monoclinic,-146.2187,-4.2527,-0.2224,3D,,True,0.0,,-0.2224,-0.0105
163981,F28Hf3Ir1Pr4,6d16a0c3af,Pr4Hf3IrF28,"['F', 'Pr', 'Hf', 'Ir']",36,597.5764,5.0665,1,P1,1,triclinic,-254.2431,-3.9691,-0.015,3D,0.1349,True,0.0,,-0.015,-0.0143
164034,Ho3O14Pr3W2,6d1e30d55b,Pr3Ho3(WO7)2,"['O', 'Pr', 'Ho', 'W']",22,313.1914,8.0017,m,Pm,6,monoclinic,-198.8993,-3.4373,-0.0335,3D,,False,0.0,,-0.0335,-0.0276
164035,Br18Cs6Ir2V2,6d1e4b9a9a,Cs3VIrBr9,"['V', 'Br', 'Cs', 'Ir']",28,1022.6582,4.4199,6mm,P6_3mc,186,hexagonal,-112.7884,-1.5038,-0.0839,intercalated ion,0.3108,False,0.0,,-0.0839,-0.0151
164186,Ho3Li12O48Tb9W8,6d329d9c04,Li12Tb9Ho3(WO6)8,"['Li', 'O', 'Tb', 'Ho', 'W']",80,943.2535,7.4768,2,C2,5,monoclinic,-660.8832,-3.0169,-0.015,intercalated ion,3.7271,True,0.0,,-0.015,-0.008
164216,F28Lu1Pd4Tm3,6d36f4a9f3,Tm3LuPd4F28,"['F', 'Pd', 'Tm', 'Lu']",36,498.524,5.4607,1,P1,1,triclinic,-195.3836,-2.8665,-0.1647,3D,1.6264,True,0.0,,-0.1647,-0.0327
164231,O12Pr5Ru1Ti1,6d390da36f,Pr5TiRuO12,"['O', 'Ti', 'Ru', 'Pr']",19,285.9984,6.0701,2,C2,5,monoclinic,-164.1038,-3.3502,-0.0016,3D,0.1279,False,0.0,,-0.0016,-0.0016
164276,As2Ce1La1Nb2O2,6d40a3dc0e,LaCeNb2(AsO)2,"['O', 'As', 'Nb', 'La', 'Ce']",8,150.2939,7.1449,4mm,P4mm,99,tetragonal,-67.253,-2.1209,-0.0191,3D,0.0038,True,0.0,,-0.0191,-0.0008
164332,F34I1U1,6d4a3cf4fd,UIF34,"['F', 'I', 'U']",36,723.8265,2.3191,1,P1,1,triclinic,-126.2197,-1.3448,-0.2511,0D,,True,0.0,,-0.2511,-0.2503
164360,Be4Eu1F16Sr3,6d4fa8da01,Sr3EuBe4F16,"['Be', 'F', 'Sr', 'Eu']",24,312.9407,4.0054,1,P1,1,triclinic,-154.5029,-3.9,-0.0062,intercalated ion,0.9725,True,0.0,,-0.0062,-0.0055
164388,Ac1Cs1O8Se2,6d54582b5d,CsAc(SeO4)2,"['O', 'Se', 'Cs', 'Ac']",12,245.3062,4.3717,2,C2,5,monoclinic,-76.0673,-2.0396,-0.2856,intercalated ion,3.7153,True,0.0,,-0.2856,-0.2539
164399,O20Pr2Si4Sm2Y4,6d5667e9c5,PrSmY2(SiO5)2,"['O', 'Si', 'Y', 'Pr', 'Sm']",32,462.7101,4.9183,2,C2,5,monoclinic,-285.795,-3.7584,-0.0139,3D,4.7053,False,0.0,,-0.0139,-0.0041
164410,La2O12Pr2Ti2V2,6d58d09d95,LaPrTiVO6,"['O', 'Ti', 'V', 'La', 'Pr']",20,254.5433,6.1924,2,P2_1,4,monoclinic,-182.2764,-3.4754,-0.0032,3D,,True,0.0,,-0.0032,-0.0031
164465,H1Mg1Na2O11,6d61e5ebbc,Na2MgHO11,"['H', 'O', 'Na', 'Mg']",15,240.7693,1.7055,1,P1,1,triclinic,-79.6599,-1.173,-0.2688,intercalated ion,0.2843,True,0.0,,-0.2688,-0.263
164587,F30Hf5Lu2Re1,6d75d69b59,Lu2Hf5ReF30,"['F', 'Lu', 'Hf', 'Re']",38,492.8362,6.7338,2,C2,5,monoclinic,-280.1456,-3.9876,-0.0061,3D,1.7828,True,0.0,,-0.0061,-0.0051
164618,N1O1P1U2,6d7aedba36,U2PNO,"['N', 'O', 'P', 'U']",5,82.7943,10.7709,3m,P3m1,156,trigonal,-51.6855,-2.081,-0.008,intercalated ion,0.0012,True,0.0,,-0.008,-0.0072
164704,Br15C1Pa1Zr5,6d8aeaaa41,Zr5PaCBr15,"['C', 'Br', 'Zr', 'Pa']",22,627.2804,5.0237,4mm,I4mm,107,tetragonal,-124.6071,-1.7533,-0.0505,2D,,True,0.0,,-0.0505,-0.0121
164734,La1O18Pu1Ta6,6d914a0065,LaPuTa6O18,"['O', 'La', 'Ta', 'Pu']",26,347.4618,8.3948,m,Pm,6,monoclinic,-269.4945,-3.4646,-0.0112,3D,,True,0.0,,-0.0112,-0.0014
164785,Cl3P1S24,6d98daa422,P(S8Cl)3,"['P', 'S', 'Cl']",28,997.442,1.5098,3m,R3m,160,trigonal,-126.9583,-0.5973,-0.4133,0D,2.7624,False,0.0,,-0.4133,-0.4132
164796,B1Br18Hf2Rb4Zr4,6d99c3b4cd,Rb4Hf2Zr4BBr18,"['B', 'Br', 'Rb', 'Zr', 'Hf']",29,1019.5575,4.0926,1,P1,1,triclinic,-148.0375,-1.8574,-0.0444,0D,inf,True,0.0,,-0.0444,-0.0345
164813,Ho5Mo1O12V1,6d9dc2eb4e,Ho5VMoO12,"['O', 'V', 'Mo', 'Ho']",19,250.5218,7.7122,2,C2,5,monoclinic,-168.2056,-3.4731,-0.0161,3D,1.5918,True,-0.0,,-0.0161,-0.0122
164827,Br6Ho1Ru2Sm5,6da0cabdd1,Sm5Ho(RuBr3)2,"['Br', 'Ru', 'Sm', 'Ho']",14,439.6679,6.0364,m,Pm,6,monoclinic,-76.9913,-1.4604,-0.0211,3D,0.1524,False,0.0,,-0.0211,-0.0211
164843,As1Cl18Cs6Ir3,6da2cc238e,Cs6As(IrCl6)3,"['Cl', 'As', 'Cs', 'Ir']",28,882.0893,3.9291,3m,P3m1,156,trigonal,-114.8143,-1.6069,-0.0019,intercalated ion,,True,0.0,,-0.0019,-0.0013
164846,O12Os1Sc2Tc3,6da37db74c,Sc2Tc3OsO12,"['O', 'Sc', 'Tc', 'Os']",18,205.1021,6.2027,1,P1,1,triclinic,-157.183,-2.3796,-0.0106,3D,0.0006,True,0.0,,-0.0106,-0.0074
164847,Mg2Na4O8Ti2,6da39dbb57,Na2MgTiO4,"['O', 'Na', 'Mg', 'Ti']",16,228.8648,2.6432,m,Pc,7,monoclinic,-109.2125,-2.8342,-0.003,intercalated ion,3.9663,False,0.0,,-0.003,-0.0026
164885,Bi14O24Se1,6da885cec4,Bi14SeO24,"['O', 'Se', 'Bi']",39,678.9523,8.2878,1,P1,1,triclinic,-240.1302,-1.6262,-0.017,intercalated molecule,2.5154,True,0.0,,-0.017,-0.017
164951,Ce7Gd1O20Pa2,6db4e3e054,Ce7GdPa2O20,"['O', 'Ce', 'Gd', 'Pa']",30,407.5744,7.823,1,P1,1,triclinic,-294.506,-4.0303,-0.0204,3D,0.0001,True,0.0,,-0.0204,-0.0194
164959,Cl24Se4Tc2,6db5db2cbf,Tc(SeCl6)2,"['Cl', 'Se', 'Tc']",30,882.761,2.5634,mm2,Fdd2,43,orthorhombic,-107.6037,-0.9511,-0.0064,0D,,True,-0.0,,-0.0064,-0.0063
164987,Ho1O8Pd4Y1,6dbc2e6939,YHo(PdO2)4,"['O', 'Y', 'Pd', 'Ho']",14,170.3551,7.8712,-4,I-4,82,tetragonal,-99.2551,-1.9931,-0.0335,3D,0.0146,True,0.0,,-0.0335,-0.0234
164997,Br12I3Tl1,6dbde08ee0,Tl(IBr4)3,"['Br', 'I', 'Tl']",16,862.5715,2.9723,1,P1,1,triclinic,-36.4665,-0.6181,-0.2515,1D,,True,0.0,,-0.2515,-0.0527
165007,Cs11Li1O16V4,6dbf7a583a,Cs11LiV4O16,"['Li', 'O', 'V', 'Cs']",32,731.9858,4.3752,-42m,I-42m,121,tetragonal,-200.3504,-2.284,-0.2237,intercalated ion,3.8579,True,0.0,,-0.2237,-0.0009
165079,Ho9O2Sc1Si6,6dcb0f1c9a,Ho9Sc(Si3O)2,"['O', 'Si', 'Sc', 'Ho']",18,367.6627,7.8128,32,P312,149,trigonal,-114.3203,-1.3499,-0.0227,3D,0.0026,True,0.0,,-0.0227,-0.0219
165124,O14Pr5Sm1Ta2,6dd36cfdd2,Pr5SmTa2O14,"['O', 'Pr', 'Sm', 'Ta']",22,332.6654,7.1919,m,Pm,6,monoclinic,-203.7711,-3.7346,-0.004,3D,3.5241,True,0.0,,-0.004,-0.004
165145,Au2Br18P4,6dd77e1ebe,P2AuBr9,"['P', 'Br', 'Au']",24,953.8105,3.4055,2,P2,3,monoclinic,-75.4719,-0.7419,-0.0204,intercalated ion,1.8075,True,0.0,,-0.0204,-0.0203
165173,Br2F24Se1Tc1,6ddbe7acf0,TcSe(BrF12)2,"['F', 'Se', 'Br', 'Tc']",28,458.6432,2.8701,m,Pm,6,monoclinic,-110.4374,-1.694,-0.1789,0D,0.0068,True,0.0,,-0.1789,-0.0538
165248,Bi1Ce1F8Na2,6de90b022e,Na2CeBiF8,"['F', 'Na', 'Ce', 'Bi']",12,176.3841,5.1502,-42m,I-4m2,119,tetragonal,-68.3276,-3.3799,-0.0388,intercalated ion,,True,0.0,,-0.0388,-0.003
165266,F28Hf4Tm3Y1,6deb94e14b,YTm3Hf4F28,"['F', 'Y', 'Tm', 'Hf']",36,542.8983,5.6329,1,P1,1,triclinic,-269.0863,-4.3289,-0.0049,3D,7.0479,True,0.0,,-0.0049,-0.0033
165267,Cl1I6Nb3S1,6deba7aea3,Nb3SI6Cl,"['S', 'Cl', 'Nb', 'I']",11,367.2661,5.0081,m,Cm,8,monoclinic,-56.8224,-1.0354,-0.0105,2D,,True,0.0,,-0.0105,-0.0019
165271,O14Pr2Ru2Tb3Y1,6dec25e5f4,Tb3Pr2Y(RuO7)2,"['O', 'Y', 'Ru', 'Pr', 'Tb']",22,298.8018,7.078,m,Pm,6,monoclinic,-187.0996,-3.1522,-0.0162,3D,0.2111,False,0.0,,-0.0162,-0.0105
165293,Cl18Cs6Ho1Tm3,6def427a6e,Cs6HoTm3Cl18,"['Cl', 'Cs', 'Ho', 'Tm']",28,944.4343,3.7052,3,R3,146,trigonal,-129.7344,-2.6099,-0.0035,intercalated ion,,True,0.0,,-0.0035,-0.0034
165321,Lu10O2Pb3Sn3,6df3554508,Lu10Sn3Pb3O2,"['O', 'Sn', 'Lu', 'Pb']",18,443.6689,10.3277,mm2,Fmm2,42,orthorhombic,-100.4539,-1.2323,-0.0078,3D,0.002,True,0.0,,-0.0078,-0.0074
165336,Gd6Np3O18,6df6bd1658,Gd2NpO6,"['O', 'Gd', 'Np']",27,410.89,7.8502,32,P321,150,trigonal,-312.6075,-3.7082,-0.2069,3D,,True,0.0,,-0.2069,-0.1959
165355,O12Os1Pr5Zr1,6df97f474b,Pr5ZrOsO12,"['O', 'Zr', 'Pr', 'Os']",19,295.83,6.6122,2,C2,5,monoclinic,-167.3114,-3.3819,-0.0058,3D,0.3009,True,0.0,,-0.0058,-0.0058
165393,F17O1,6e00068cef,OF17,"['O', 'F']",18,307.0453,1.8332,1,P1,1,triclinic,-45.256,-0.434,-0.3511,intercalated ion,,True,0.0,,-0.3511,-0.3469
165401,Br22Rb2Ta3W1,6e01bfc36f,Rb2Ta3WBr22,"['Br', 'Rb', 'Ta', 'W']",28,1040.8939,4.2363,1,P1,1,triclinic,-125.5656,-1.395,-0.0102,intercalated ion,,True,0.0,,-0.0102,-0.002
165408,Ag3C1Hg4O11,6e02cdf235,Ag3Hg4CO11,"['C', 'O', 'Ag', 'Hg']",19,283.424,7.6983,m,Cm,8,monoclinic,-87.0538,-0.7204,-0.0222,3D,0.0059,True,0.0,,-0.0222,-0.015
165436,Cl4I2Ti2,6e075baf8d,TiICl2,"['Cl', 'Ti', 'I']",8,292.9659,2.785,mm2,Amm2,38,orthorhombic,-40.2035,-1.7463,-0.0024,1D,0.1766,True,0.0,,-0.0024,-0.0019
165463,Ba4O12Re1Tm1U1,6e0c73c68c,Ba4TmUReO12,"['O', 'Ba', 'Tm', 'Re', 'U']",19,301.0438,7.3609,3m,R3m,160,trigonal,-157.2813,-3.2641,-0.0213,intercalated ion,1.6644,False,0.0,,-0.0213,-0.0153
165507,Br8Tl4Zn2,6e12cc2d7d,Tl2ZnBr4,"['Zn', 'Br', 'Tl']",14,517.5617,5.0936,mm2,Ama2,40,orthorhombic,-42.0636,-1.2144,-0.013,intercalated ion,,True,0.0,,-0.013,-0.0107
165538,Cl35Pt1,6e176cd37b,PtCl35,"['Cl', 'Pt']",36,1307.6172,1.8235,1,P1,1,triclinic,-91.7021,-0.5815,-0.4864,0D,,True,0.0,,-0.4864,-0.46
165596,Br24Li8Pr1U3,6e1fe8ced5,Li8Pr(UBr8)3,"['Li', 'Br', 'Pr', 'U']",36,1112.5878,4.2211,32,P312,149,trigonal,-160.583,-1.8714,-0.0216,intercalated ion,0.0062,True,0.0,,-0.0216,-0.0193
165599,C1F8H4,6e20925d92,H4CF8,"['H', 'C', 'F']",13,139.2088,2.0043,1,P1,1,triclinic,-62.8191,-1.9023,-0.0194,0D,8.3225,True,0.0,,-0.0194,-0.0048
165604,Bi3Ho2La3O14,6e20ea4450,La3Ho2Bi3O14,"['O', 'La', 'Ho', 'Bi']",22,341.5517,7.7667,1,P1,1,triclinic,-169.4945,-2.9355,-0.0713,3D,1.52,True,-0.0,,-0.0713,-0.0535
165608,Ac5Ir1O12Sc1,6e2153ca6a,Ac5ScIrO12,"['O', 'Sc', 'Ir', 'Ac']",19,315.4237,8.2345,2,C2,5,monoclinic,-157.9232,-3.3037,-0.1151,3D,,True,0.0,,-0.1151,-0.0821
165624,Bi1Ce1O6Pa1,6e236966a6,CePaBiO6,"['O', 'Ce', 'Bi', 'Pa']",9,125.1847,8.9687,mm2,Imm2,44,orthorhombic,-79.5428,-3.3908,-0.1606,3D,,False,0.0,,-0.1606,-0.142
165686,Al2Cl16Ga6,6e2f631557,AlGa3Cl8,"['Al', 'Cl', 'Ga']",24,695.0579,2.4836,mm2,Pnn2,34,orthorhombic,-92.8164,-1.5658,-0.0008,intercalated ion,3.9444,False,0.0,,-0.0008,-0.0003
165726,Bi5La3O24Ru4,6e3491696b,La3Bi5(RuO6)4,"['O', 'Ru', 'La', 'Bi']",36,516.3608,7.2353,1,P1,1,triclinic,-262.6357,-2.0147,-0.0292,3D,0.0057,True,0.0,,-0.0292,-0.0277
165753,Gd2Ho4O14Ta2,6e3a08a5ba,GdHo2TaO7,"['O', 'Gd', 'Ho', 'Ta']",22,299.7046,8.6439,222,C222_1,20,orthorhombic,-224.5141,-3.8657,-0.0105,3D,3.1876,True,0.0,,-0.0105,-0.0104
165755,Br1Ho2Pr18Si15,6e3a4eb781,Pr18Ho2Si15Br,"['Si', 'Br', 'Pr', 'Ho']",36,966.0174,5.7884,1,P1,1,triclinic,-203.9807,-0.7151,-0.0196,3D,,True,0.0,,-0.0196,-0.0158
165784,Ac1Ca3O19Os6,6e3fbecb35,Ca3AcOs6O19,"['O', 'Ca', 'Os', 'Ac']",29,382.1906,7.7885,3,R3,146,trigonal,-233.5528,-2.1393,-0.0644,intercalated ion,,False,0.0,,-0.0644,-0.0444
165792,Cl2Pr9Sn6Tm1,6e40dc6286,Pr9Tm(Sn3Cl)2,"['Cl', 'Sn', 'Pr', 'Tm']",18,529.4445,6.9636,32,P312,149,trigonal,-94.5209,-1.0701,-0.0669,3D,0.0008,True,0.0,,-0.0669,-0.0645
165814,La2Mg1O12Pd1Te2,6e4414944d,La2MgTe2PdO12,"['O', 'Mg', 'Pd', 'Te', 'La']",18,255.1138,5.57,32,P312,149,trigonal,-124.376,-2.3368,-0.0257,3D,1.254,True,0.0,,-0.0257,-0.0141
165831,Br19Tl1,6e47c07398,TlBr19,"['Br', 'Tl']",20,884.7389,3.233,1,P1,1,triclinic,-45.4717,-0.6004,-0.4417,intercalated ion,,True,0.0,,-0.4417,-0.4225
165994,F28Ir1La4Zr3,6e6297ba30,La4Zr3IrF28,"['F', 'Zr', 'La', 'Ir']",36,619.8862,4.1614,1,P1,1,triclinic,-249.5157,-3.938,-0.0162,3D,,True,0.0,,-0.0162,-0.0148
166032,Na4O6Sb1Tb1,6e69becbe1,Na4TbSbO6,"['O', 'Na', 'Sb', 'Tb']",12,160.2988,4.8547,2,C2,5,monoclinic,-72.4622,-2.3934,-0.0116,intercalated ion,2.5409,True,0.0,,-0.0116,-0.011
166045,Cu4Na1O8Sm1,6e6c61fa64,NaSm(CuO2)4,"['O', 'Na', 'Cu', 'Sm']",14,162.0422,5.6928,-4,I-4,82,tetragonal,-84.4946,-1.6049,-0.0453,intercalated ion,,True,0.0,,-0.0453,-0.0448
166123,Eu4O12Tl2W1,6e78a81fd7,Eu4Tl2WO12,"['O', 'Eu', 'W', 'Tl']",19,293.2814,7.884,1,P1,1,triclinic,-167.4269,-2.5896,-0.1292,3D,,True,-0.0,,-0.1292,-0.0576
166151,Al4Br16K3Rb1,6e7d7a823d,K3Rb(AlBr4)4,"['Al', 'K', 'Br', 'Rb']",24,933.4419,2.827,1,P1,1,triclinic,-88.1511,-1.7778,-0.0063,intercalated ion,,True,0.0,,-0.0063,-0.005
166180,Ac2Br2Ir2Pr2,6e82e2fc56,AcPrIrBr,"['Br', 'Pr', 'Ir', 'Ac']",8,254.8014,8.3421,6mm,P6_3mc,186,hexagonal,-49.0337,-1.2849,-0.1406,2D,0.0069,True,0.0,,-0.1406,-0.1108
166221,Bi2Cd4In1Lu1O12,6e88d8fa47,LuCd4In(BiO6)2,"['O', 'Cd', 'In', 'Lu', 'Bi']",20,295.0624,7.594,1,P1,1,triclinic,-114.3064,-1.8093,-0.0436,3D,,True,0.0,,-0.0436,-0.0332
166239,F8O6Pa4,6e8ad5e229,Pa2O3F4,"['O', 'F', 'Pa']",18,336.1746,5.7897,mm2,Cmc2_1,36,orthorhombic,-157.2796,-4.1245,-2.1079,2D,,True,0.0,,-2.1079,-1.0579
166363,Cd1O22Pb1Ta8,6ea15b177a,Ta8CdPbO22,"['O', 'Cd', 'Ta', 'Pb']",32,428.1605,8.2188,32,P312,149,trigonal,-308.676,-3.1351,-0.0018,3D,2.6125,True,0.0,,-0.0018,-0.0016
166383,Gd2Ho2La2Nb2O14,6ea3618480,LaGdHoNbO7,"['O', 'Nb', 'La', 'Gd', 'Ho']",22,312.7163,7.0729,mm2,Ama2,40,orthorhombic,-219.2069,-3.752,-0.0086,3D,2.5548,True,0.0,,-0.0086,-0.0055
166386,Br5Li3O12,6ea3e53db0,Li3Br5O12,"['Li', 'O', 'Br']",20,326.4282,3.115,1,P1,1,triclinic,-88.9769,-0.7845,-0.1521,intercalated ion,,True,0.0,,-0.1521,-0.1497
166389,Al2Br14,6ea493c120,AlBr7,"['Al', 'Br']",16,804.4284,2.4206,2,P2_1,4,monoclinic,-47.085,-1.0423,-0.2829,1D,1.7036,True,-0.0,,-0.2829,-0.2828
166422,Al1O12Ru1Tb2Y3,6ea9ef9b5f,Tb2Y3AlRuO12,"['O', 'Al', 'Y', 'Ru', 'Tb']",19,250.8322,5.9886,1,P1,1,triclinic,-165.1399,-3.3724,-0.0118,3D,0.0029,True,0.0,,-0.0118,-0.0076
166466,Ba4Cl2Ho1O6Tl1,6eb39a84a0,Ba4HoTl(ClO3)2,"['O', 'Cl', 'Ba', 'Ho', 'Tl']",14,295.3181,6.1038,4mm,P4mm,99,tetragonal,-87.6358,-2.8308,-0.0324,intercalated ion,0.3327,True,0.0,,-0.0324,-0.0106
166571,Mo1O12Pr5Sn1,6ec610794c,Pr5SnMoO12,"['O', 'Mo', 'Sn', 'Pr']",19,295.8229,6.2374,2,C2,5,monoclinic,-159.8693,-3.2492,-0.0209,3D,,True,0.0,,-0.0209,-0.015