Unnamed: 0,Composition,MaterialId,Reduced Formula,Elements,NSites,Volume,Density,Point Group,Space Group,Space Group Number,Crystal System,Corrected Energy,Formation Energy Per Atom,Decomposition Energy Per Atom,Dimensionality Cheon,Bandgap,Is Train,Decomposition Energy Per Atom All,Decomposition Energy Per Atom Relative,Decomposition Energy Per Atom MP,Decomposition Energy Per Atom MP OQMD
153246,F1Pr10Si6,6608d1d0a3,Pr10Si6F,"['F', 'Si', 'Pr']",17,441.8768,5.9999,-42m,I-42m,121,tetragonal,-96.9363,-0.8626,-0.0037,3D,0.0002,True,0.0,,-0.0037,-0.0011
153284,Ce2Ge1O2P1Rh2,660ddabe81,Ce2GeP(RhO)2,"['O', 'P', 'Ge', 'Rh', 'Ce']",8,133.5816,7.7277,4mm,P4mm,99,tetragonal,-63.7869,-2.1575,-0.03,3D,0.0021,False,0.0,,-0.03,-0.0062
153374,Hf1O12Sb1Tm5,662156ffc8,Tm5HfSbO12,"['O', 'Sb', 'Tm', 'Hf']",19,246.3678,9.0109,1,P1,1,triclinic,-166.972,-3.7437,-0.0256,3D,,False,0.0,,-0.0256,-0.0248
153384,Bi1O14P4W1,6623b1647b,BiP4WO14,"['O', 'P', 'W', 'Bi']",20,307.1321,4.0047,1,P1,1,triclinic,-157.4545,-2.4841,-0.0044,3D,2.3364,True,0.0,,-0.0044,-0.0044
153408,O19Os6Pb1Sr3,6626e4cdde,Sr3Os6PbO19,"['O', 'Sr', 'Os', 'Pb']",29,400.4903,7.9419,3,R3,146,trigonal,-226.8537,-1.9551,-0.1191,intercalated ion,0.0003,True,0.0,,-0.1191,-0.0734
153440,F28Ho4Ti1Zr3,662d2c28bb,Ho4Zr3TiF28,"['F', 'Ti', 'Zr', 'Ho']",36,545.7018,4.6046,1,P1,1,triclinic,-256.4752,-4.1968,-0.0135,3D,,False,0.0,,-0.0135,-0.0116
153463,Br12La7Pr5Pt4,663120aa82,La7Pr5(PtBr3)4,"['Br', 'La', 'Pr', 'Pt']",28,939.8716,6.0354,1,P1,1,triclinic,-152.09,-1.7752,-0.033,3D,0.0069,True,0.0,,-0.033,-0.0323
153488,Lu5O12Re1Tc1,6635a8db6c,Lu5ReTcO12,"['O', 'Tc', 'Lu', 'Re']",19,238.8611,9.3923,2,C2,5,monoclinic,-169.5376,-3.408,-0.017,3D,,True,0.0,,-0.017,-0.0168
153506,As1Br4F32O4V3,6638b90b52,V3AsBr4(OF8)4,"['O', 'F', 'V', 'As', 'Br']",44,701.3255,2.887,1,P1,1,triclinic,-206.7787,-1.9855,-0.0198,0D,2.9992,True,0.0,,-0.0198,-0.0127
153536,Cu4La2O12Y2,663cc13e50,LaY(CuO3)2,"['O', 'Cu', 'Y', 'La']",20,264.8907,5.6532,mm2,Pmc2_1,26,orthorhombic,-147.7639,-2.4593,-0.0268,3D,0.8665,False,0.0,,-0.0268,-0.0052
153543,Ba1Ir1K4O6,663d7d6121,K4BaIrO6,"['O', 'K', 'Ba', 'Ir']",12,206.1039,4.6885,2,C2,5,monoclinic,-66.1306,-1.7703,-0.0756,intercalated ion,,False,0.0,,-0.0756,-0.0246
153558,B2Cl34Cs8Ti12,6640cf0082,Cs4Ti6BCl17,"['B', 'Cl', 'Ti', 'Cs']",56,1443.7981,3.2947,-42m,P-42_1m,113,tetragonal,-294.9474,-2.0862,-0.0552,intercalated ion,,True,-0.0,,-0.0552,-0.0317
153625,F27O1Sm4V4,664a11aa78,Sm4V4OF27,"['O', 'F', 'V', 'Sm']",36,537.3766,4.1227,1,P1,1,triclinic,-242.3274,-3.6267,-0.0204,3D,2.0066,True,0.0,,-0.0204,-0.0202
153646,Br4Re2Tc10Te16,664e2c9970,ReTc5(Te4Br)2,"['Br', 'Tc', 'Te', 'Re']",32,972.5963,6.3404,m,Pc,7,monoclinic,-204.8637,-0.6102,-0.0783,3D,0.4918,True,0.0,,-0.0783,-0.0587
153717,Cu4Hg1La1O8,6657805e1b,LaCu4HgO8,"['O', 'Cu', 'La', 'Hg']",14,167.7828,7.1424,-4,I-4,82,tetragonal,-81.4167,-1.4426,-0.0311,3D,0.0047,False,0.0,,-0.0311,-0.0311
153722,Cl18Ir3Rb6Sc1,6658816ef2,Rb6Sc(IrCl6)3,"['Cl', 'Sc', 'Rb', 'Ir']",28,824.6844,3.5691,3m,P3m1,156,trigonal,-121.9804,-1.7848,-0.039,intercalated ion,,True,0.0,,-0.039,-0.0066
153723,Gd1La2Nb2O14Tb3,66589b4c3d,La2Tb3GdNb2O14,"['O', 'Nb', 'La', 'Gd', 'Tb']",22,313.2454,7.0061,m,Pm,6,monoclinic,-209.8712,-3.7521,-0.0101,3D,2.6303,True,0.0,,-0.0101,-0.0085
153727,Bi2Br2Rb12Te8,66592f55b2,Rb6BiTe4Br,"['Br', 'Rb', 'Te', 'Bi']",24,1106.1439,3.9394,6mm,P6_3mc,186,hexagonal,-76.6492,-1.1951,-0.045,intercalated ion,1.7905,True,0.0,,-0.045,-0.0144
153735,O10Pd4Pr3Sm1,665ab1bbe3,Pr3Sm(Pd2O5)2,"['O', 'Pd', 'Pr', 'Sm']",18,250.7393,7.674,m,Pm,6,monoclinic,-134.1236,-2.4924,-0.0261,3D,1.1477,True,0.0,,-0.0261,-0.0261
153758,Hf6Lu1O24Tb7,665e0184ba,Tb7LuHf6O24,"['O', 'Tb', 'Lu', 'Hf']",38,506.9958,8.982,1,P1,1,triclinic,-368.6671,-4.0319,-0.0194,3D,4.4235,True,0.0,,-0.0194,-0.0172
153826,Ac1Br6Pr11Si14,66680413c8,AcPr11(Si7Br3)2,"['Si', 'Br', 'Pr', 'Ac']",32,819.903,5.3662,mm2,Pmm2,25,orthorhombic,-178.4724,-1.1245,-0.0512,3D,0.0007,True,0.0,,-0.0512,-0.0274
153842,Ho1O14Pr1Ta2Tb4,666b3cd2e9,Tb4PrHoTa2O14,"['O', 'Pr', 'Tb', 'Ho', 'Ta']",22,305.1998,8.3105,1,P1,1,triclinic,-205.6045,-3.8508,-0.0139,3D,3.508,True,0.0,,-0.0139,-0.0113
153880,Ac8O24Te4,667195556f,Ac2TeO6,"['O', 'Te', 'Ac']",36,601.1015,7.4874,222,P2_12_12_1,19,orthorhombic,-271.5802,-2.9802,-0.3067,3D,2.6668,True,0.0,,-0.3067,-0.3067
153929,Ho2O36Si4Ti8Y6,667829f200,Y3HoTi4(SiO9)2,"['O', 'Si', 'Ti', 'Y', 'Ho']",56,681.9277,4.7108,2,P2_1,4,monoclinic,-517.3486,-3.6856,-0.0052,3D,3.1723,True,0.0,,-0.0052,-0.0018
153954,O17Rb3Ti8,667b755e9d,Rb3Ti8O17,"['O', 'Ti', 'Rb']",28,378.3273,4.0,m,Cm,8,monoclinic,-242.2666,-3.2873,-0.0014,intercalated ion,0.0005,True,0.0,,-0.0014,-0.0014
153966,Ir1K1O6Te1,667ec16ea0,KTeIrO6,"['O', 'K', 'Te', 'Ir']",9,149.4198,5.0555,32,P312,149,trigonal,-56.5935,-1.5349,-0.087,intercalated ion,0.0034,True,0.0,,-0.087,-0.0695
154038,Cs4F20Ti4,668b406b7c,CsTiF5,"['F', 'Ti', 'Cs']",28,531.9295,3.4434,mm2,Pmc2_1,26,orthorhombic,-175.5407,-3.6481,-0.0802,intercalated ion,4.438,True,-0.0,,-0.0802,-0.0152
154056,As4F4O16Zn8,668d57f2b0,Zn2AsO4F,"['O', 'F', 'Zn', 'As']",32,397.8789,4.8201,m,Cc,9,monoclinic,-177.796,-1.9459,-0.0161,3D,2.08,True,0.0,,-0.0161,-0.0161
154117,Be1Br8Cd3O24,6698886efe,BeCd3(BrO3)8,"['Be', 'O', 'Br', 'Cd']",36,614.4169,3.7011,1,P1,1,triclinic,-161.6924,-0.6483,-0.1376,intercalated ion,3.5979,True,-0.0,,-0.1376,-0.1305
154118,Cs2F8O4Re2,66988a1e1a,CsRe(OF2)2,"['O', 'F', 'Cs', 'Re']",16,373.5378,3.7973,-42m,P-42_1m,113,tetragonal,-104.0728,-2.6443,-0.0555,intercalated ion,3.1786,True,0.0,,-0.0555,-0.054
154204,O12Os1Pr5Pt1,66a5ce1e1e,Pr5OsPtO12,"['O', 'Pr', 'Os', 'Pt']",19,291.501,7.302,2,C2,5,monoclinic,-156.6521,-2.9513,-0.0462,3D,0.002,True,0.0,,-0.0462,-0.0461
154225,Ca3La1O12Ti4,66a96f862e,Ca3LaTi4O12,"['O', 'Ca', 'Ti', 'La']",20,235.4636,4.5318,m,Pm,6,monoclinic,-173.9226,-3.6006,-0.0167,intercalated ion,0.0134,True,0.0,,-0.0167,-0.0091
154252,Ac5O24Pr3Ru4,66ade1bf97,Ac5Pr3(RuO6)4,"['O', 'Ru', 'Pr', 'Ac']",36,534.8586,7.2834,1,P1,1,triclinic,-289.8254,-2.7508,-0.0761,3D,,True,0.0,,-0.0761,-0.0761
154254,F28Lu4Pt3Zr1,66adfddc8e,Lu4ZrPt3F28,"['F', 'Zr', 'Lu', 'Pt']",36,510.334,6.2093,1,P1,1,triclinic,-215.2881,-3.2478,-0.0017,3D,2.3123,True,0.0,,-0.0017,-0.001
154325,Cl2Gd1N1Sm1,66b9c218ea,SmGdNCl2,"['N', 'Cl', 'Sm', 'Gd']",5,117.0908,5.5666,3m,P3m1,156,trigonal,-41.9518,-2.2247,-0.0844,2D,0.0054,True,0.0,,-0.0844,-0.0096
154336,Bi1F7,66baad6704,BiF7,"['F', 'Bi']",8,147.5934,3.8474,1,P1,1,triclinic,-30.925,-1.7068,-0.1098,intercalated molecule,1.2112,True,0.0,,-0.1098,-0.1097
154359,Br2C2Pu1Sm1,66be0d03ac,SmPu(CBr)2,"['C', 'Br', 'Sm', 'Pu']",6,146.941,6.534,m,Cm,8,monoclinic,-47.486,-1.1287,-0.0612,2D,0.0044,True,0.0,,-0.0612,-0.0121
154408,Ba10F2O30Os6,66c799f5d9,Ba5Os3O15F,"['O', 'F', 'Ba', 'Os']",48,789.8118,6.3759,6mm,P6_3cm,185,hexagonal,-355.4073,-2.429,-0.0766,intercalated ion,,True,0.0,,-0.0766,-0.07
154465,La1O10Pd4Pr3,66cf6d9183,LaPr3(Pd2O5)2,"['O', 'Pd', 'La', 'Pr']",18,254.6368,7.4818,m,Pm,6,monoclinic,-134.6089,-2.5073,-0.0276,3D,1.1526,False,0.0,,-0.0276,-0.0276
154469,As4K2Nb2O14,66cfd50707,KNbAs2O7,"['O', 'K', 'As', 'Nb']",22,372.4681,3.5117,2,P2_1,4,monoclinic,-159.4953,-2.2347,-0.0002,intercalated ion,3.2637,True,0.0,,-0.0002,-0.0002
154494,Ca1Cd4O16Si4Sr3,66d58f60f8,Sr3CaCd4(SiO4)4,"['O', 'Si', 'Ca', 'Sr', 'Cd']",28,418.5314,4.4473,m,Pm,6,monoclinic,-191.5867,-2.8554,-0.0048,intercalated ion,2.4194,True,0.0,,-0.0048,-0.0048
154524,O24Sc3Tb4V1W4,66dc2a2c79,Tb4Sc3V(WO6)4,"['O', 'Sc', 'V', 'Tb', 'W']",36,448.7683,7.1816,1,P1,1,triclinic,-331.4571,-3.1737,-0.0261,3D,2.0566,True,0.0,,-0.0261,-0.0103
154741,Br12Ge3Pr12Zn1,6702e3a1e2,Pr12Zn(GeBr4)3,"['Zn', 'Ge', 'Br', 'Pr']",28,899.2191,5.4163,32,R32,155,trigonal,-137.9113,-1.6346,-0.0744,3D,0.0065,True,0.0,,-0.0744,-0.0527
154805,La2Mg2O12Pr2Pt2,670e34544f,LaPrMgPtO6,"['O', 'Mg', 'La', 'Pr', 'Pt']",20,255.7801,7.7281,2,P2_1,4,monoclinic,-151.5534,-2.8701,-0.0206,3D,2.1064,False,-0.0,,-0.0206,-0.0119
154853,Lu1O14P4U1,6717aa29b9,LuU(P2O7)2,"['O', 'P', 'Lu', 'U']",20,324.8315,3.8896,1,P1,1,triclinic,-169.2437,-3.1253,-0.0172,3D,0.7818,True,0.0,,-0.0172,-0.0172
154888,Cs2O7Sr1V2,671c934bc2,Cs2SrV2O7,"['O', 'V', 'Sr', 'Cs']",12,269.8924,3.4904,m,Cm,8,monoclinic,-87.8171,-2.6278,-0.0948,intercalated ion,3.441,True,-0.0,,-0.0948,-0.0115
154917,F28Ho2Pt3Tc1Tm2,67201409c8,Ho2Tm2TcPt3F28,"['F', 'Tc', 'Ho', 'Tm', 'Pt']",36,515.9398,6.0602,1,P1,1,triclinic,-209.4937,-3.0356,-0.1022,3D,1.5215,False,0.0,,-0.1022,-0.017
154923,F36Th1Tm1,672127a195,TmThF36,"['F', 'Tm', 'Th']",38,682.2519,2.6406,1,P1,1,triclinic,-129.6331,-1.2876,-0.2616,0D,,True,0.0,,-0.2616,-0.222
154974,C2F22,672be6cc82,CF11,"['C', 'F']",24,436.5325,1.6813,3m,R3c,161,trigonal,-86.6081,-1.0876,-0.1779,intercalated ion,0.3107,True,0.0,,-0.1779,-0.1779
154980,F24Na4Pb4V4,672d0d36f9,NaVPbF6,"['F', 'Na', 'V', 'Pb']",36,567.6672,4.6232,222,P2_12_12_1,19,orthorhombic,-211.1649,-3.0226,-0.0069,intercalated ion,2.4053,True,0.0,,-0.0069,-0.0059
154992,Au1F6O4,672e973718,Au(O2F3)2,"['O', 'F', 'Au']",11,216.6799,2.8735,1,P1,1,triclinic,-43.7158,-0.8347,-0.0467,0D,,True,0.0,,-0.0467,-0.0389
154994,O12Rb2Sn1Te3,672eae3da8,Rb2Sn(TeO4)3,"['O', 'Rb', 'Sn', 'Te']",18,276.7792,5.1862,2,C2,5,monoclinic,-106.3033,-1.7515,-0.0845,intercalated ion,0.7735,False,0.0,,-0.0845,-0.0749
155018,F9Hf2K1,67329cb58e,KHf2F9,"['F', 'K', 'Hf']",12,223.1004,4.2207,32,P321,150,trigonal,-86.2932,-4.0054,-0.0259,intercalated ion,7.4029,True,-0.0,,-0.0259,-0.0181
155026,Ba20Ga5O44Pt7,67344e7529,Ba20Ga5Pt7O44,"['O', 'Ga', 'Ba', 'Pt']",76,1268.7939,6.7593,m,Pm,6,monoclinic,-491.5013,-2.3391,-0.0259,intercalated ion,,True,0.0,,-0.0259,-0.0074
155080,Bi1Nb2O14Pr5,673cfdb941,Pr5Nb2BiO14,"['O', 'Nb', 'Pr', 'Bi']",22,334.3781,6.5717,m,Pm,6,monoclinic,-191.5255,-3.3753,-0.0027,3D,2.5517,True,0.0,,-0.0027,-0.0027
155112,Br3H2K1,67421c5bde,KH2Br3,"['H', 'K', 'Br']",6,184.3332,2.5298,m,Cm,8,monoclinic,-18.9987,-1.032,-0.0096,intercalated ion,,True,-0.0,,-0.0096,-0.0066
155147,Ga2O8Rb2Ti2,6748150519,RbTiGaO4,"['O', 'Ti', 'Ga', 'Rb']",14,272.6735,3.2527,mm2,Imm2,44,orthorhombic,-102.2327,-2.7743,-0.0168,intercalated ion,3.4546,True,0.0,,-0.0168,-0.0069
155161,Li2O24P8Pr1Sm1,674a356ca6,Li2PrSm(PO3)8,"['Li', 'O', 'P', 'Pr', 'Sm']",36,475.5601,3.2715,2,C2,5,monoclinic,-280.7345,-2.9267,-0.015,intercalated ion,5.9813,True,0.0,,-0.015,-0.0025
155171,Cl16F4Ru4,674c20a250,RuCl4F,"['F', 'Cl', 'Ru']",24,714.0494,2.436,-4,I-4,82,tetragonal,-101.7774,-1.1441,-0.2039,0D,0.4608,True,0.0,,-0.2039,-0.0146
155213,Cl5I7Pt4,6754f83618,Pt4I7Cl5,"['Cl', 'I', 'Pt']",16,523.4232,5.8561,1,P1,1,triclinic,-54.2172,-0.6264,-0.0184,1D,0.6592,True,0.0,,-0.0184,-0.013
155253,Br9I3Pt4,675cb9a10f,Pt4(IBr3)3,"['Br', 'I', 'Pt']",16,507.1055,6.1567,1,P1,1,triclinic,-53.3567,-0.6105,-0.0088,3D,0.7526,True,-0.0,,-0.0088,-0.0065
155290,Ac1F1Si6Sr9,676415bd03,Sr9AcSi6F,"['F', 'Si', 'Sr', 'Ac']",17,515.6653,3.8742,m,Cm,8,monoclinic,-66.529,-0.7494,-0.0475,intercalated ion,0.0131,False,0.0,,-0.0475,-0.0464
155309,Hf16O4Pt7Ta1,6766f4ab70,Hf16TaPt7O4,"['O', 'Hf', 'Ta', 'Pt']",28,487.6931,15.2075,3m,R3m,160,trigonal,-274.6476,-1.4709,-0.0352,3D,0.0015,True,0.0,,-0.0352,-0.021
155331,Ca5O12Ru1Sm1W1,67693fdcc9,Ca5SmRuWO12,"['O', 'Ca', 'Ru', 'Sm', 'W']",20,287.7223,4.7767,1,P1,1,triclinic,-155.6706,-2.9658,-0.0145,intercalated ion,,True,0.0,,-0.0145,-0.0145
155397,F28La4Pt1V3,6775e1546a,La4V3PtF28,"['F', 'V', 'La', 'Pt']",36,578.4049,4.1211,1,P1,1,triclinic,-233.231,-3.5179,-0.0501,3D,1.9841,True,0.0,,-0.0501,-0.0499
155403,Ag1Cu1F34,6776ac9918,CuAgF34,"['F', 'Cu', 'Ag']",36,641.3068,2.1164,1,P1,1,triclinic,-94.3022,-0.6217,-0.3243,0D,,True,-0.0,,-0.3243,-0.2822
155412,Eu2O10Pd4Sm2,6777d5819d,SmEuPd2O5,"['O', 'Pd', 'Sm', 'Eu']",18,247.2469,7.9943,m,Pm,6,monoclinic,-143.0276,-2.3782,-0.0732,3D,0.0022,True,-0.0,,-0.0732,-0.0384
155417,Ce1O12Pr4Rh2,67787e85b5,CePr4(RhO6)2,"['O', 'Rh', 'Ce', 'Pr']",19,283.8496,6.4441,m,Cm,8,monoclinic,-156.2814,-3.0063,-0.0347,3D,,True,0.0,,-0.0347,-0.0347
155419,Ce4O20Pr1U5,67789a32f2,Ce4PrU5O20,"['O', 'Ce', 'Pr', 'U']",30,406.4978,9.034,1,P1,1,triclinic,-303.447,-3.9839,-0.1078,3D,0.0009,True,0.0,,-0.1078,-0.065
155421,Bi6Ir2O18Zn1,6778b3280a,ZnBi6(IrO9)2,"['O', 'Zn', 'Ir', 'Bi']",27,386.8852,8.5486,3,P3,143,trigonal,-170.5081,-1.4507,-0.0567,3D,0.0007,False,0.0,,-0.0567,-0.0409
155464,Ac24Br24C16,6780eb1916,Ac3C2Br3,"['C', 'Br', 'Ac']",64,1887.2502,6.65,222,C222_1,20,orthorhombic,-373.2611,-1.3662,-0.1186,inf,,True,-0.0,,-0.1186,-0.1186
155479,Cl1S27,67825f3949,S27Cl,"['S', 'Cl']",28,1145.8584,1.306,3m,R3m,160,trigonal,-125.3274,-0.4212,-0.3874,intercalated ion,,False,-0.0,,-0.3874,-0.3874
155493,B1Br3H1Rb1,678555a885,RbBHBr3,"['H', 'B', 'Br', 'Rb']",6,188.3987,2.9703,3m,R3m,160,trigonal,-22.9174,-1.159,-0.0336,intercalated ion,4.4305,True,0.0,,-0.0336,-0.0332
155521,Br2C1Hf1Zr1,678af78c1a,HfZrCBr2,"['C', 'Br', 'Zr', 'Hf']",5,110.7172,6.6221,3m,P3m1,156,trigonal,-38.2493,-1.4488,-0.0986,2D,0.0062,True,0.0,,-0.0986,-0.002
155535,Ac11Br6Si14Th1,678cbe4f76,Ac11Th(Si7Br3)2,"['Si', 'Br', 'Ac', 'Th']",32,916.5976,6.5249,mm2,Pmm2,25,orthorhombic,-173.3384,-1.088,-0.2665,3D,0.0044,False,0.0,,-0.2665,-0.2242
155568,Br1Cu2S1,6791a3467b,Cu2SBr,"['S', 'Cu', 'Br']",4,81.7212,4.8576,2,C2,5,monoclinic,-16.043,-0.5178,-0.0359,3D,0.0051,True,0.0,,-0.0359,-0.0141
155585,Ir4O13Pb3Sr1,6795cb4837,SrIr4Pb3O13,"['O', 'Sr', 'Ir', 'Pb']",21,281.6396,9.9411,3m,R3m,160,trigonal,-145.8306,-1.587,-0.027,intercalated ion,0.0072,True,0.0,,-0.027,-0.0122
155613,Na9O15Ru3,679b9e7a2a,Na3RuO5,"['O', 'Na', 'Ru']",27,370.8944,3.3583,32,P3_121,152,trigonal,-158.2303,-1.6402,-0.0443,intercalated ion,,True,0.0,,-0.0443,-0.044
155625,Br2Ho2Pd1Si1,679d8018c3,Ho2SiPdBr2,"['Si', 'Br', 'Pd', 'Ho']",6,162.6858,6.371,3m,P3m1,156,trigonal,-32.3968,-1.5588,-0.059,2D,,True,0.0,,-0.059,-0.0084
155671,In1O12Pr5Rh1,67a56e2adf,Pr5InRhO12,"['O', 'Rh', 'In', 'Pr']",19,295.8632,6.2538,2,C2,5,monoclinic,-149.5793,-2.957,-0.0439,3D,0.0121,False,0.0,,-0.0439,-0.0392
155686,Ag1Au4O8Tb1,67a6f88af2,TbAg(AuO2)4,"['O', 'Ag', 'Tb', 'Au']",14,188.6304,10.4111,-4,I-4,82,tetragonal,-76.1451,-1.1428,-0.0507,3D,,False,0.0,,-0.0507,-0.0327
155700,Ac3O10Pd4Sm1,67aa2b213b,Ac3Sm(Pd2O5)2,"['O', 'Pd', 'Sm', 'Ac']",18,270.0187,8.7144,m,Pm,6,monoclinic,-132.5219,-2.5134,-0.068,3D,,True,0.0,,-0.068,-0.0633
155702,Gd5O12Ta1Tb1,67aa7a22b6,TbGd5TaO12,"['O', 'Gd', 'Tb', 'Ta']",19,271.7407,8.0547,1,P1,1,triclinic,-217.9773,-3.7752,-0.0185,3D,0.0017,True,0.0,,-0.0185,-0.0144
155704,Ge1Ho5O12Ru1,67aacc83a6,Ho5GeRuO12,"['O', 'Ge', 'Ru', 'Ho']",19,247.8818,7.9741,2,C2,5,monoclinic,-158.5505,-3.2824,-0.0201,3D,0.0026,True,0.0,,-0.0201,-0.0201
155713,Bi4F28Hf3Sn1,67abaf66d0,Hf3SnBi4F28,"['F', 'Sn', 'Hf', 'Bi']",36,585.6346,5.7334,1,P1,1,triclinic,-224.5527,-3.3775,-0.0466,3D,,True,0.0,,-0.0466,-0.0465
155753,Ba4Ir3Nb1O16,67b1b701b0,Ba4NbIr3O16,"['O', 'Nb', 'Ba', 'Ir']",24,421.2766,5.8134,2,P2,3,monoclinic,-176.364,-2.2043,-0.0851,intercalated ion,0.0091,True,0.0,,-0.0851,-0.0849
155771,F34Sb1Se1,67b53d77a3,SbSeF34,"['F', 'Se', 'Sb']",36,683.0321,2.0584,1,P1,1,triclinic,-111.8895,-1.091,-0.3598,0D,,True,0.0,,-0.3598,-0.2632
155825,Br35Re1,67bdbba35f,ReBr35,"['Br', 'Re']",36,1793.7135,2.7614,1,P1,1,triclinic,-89.8059,-0.5575,-0.497,0D,,True,0.0,,-0.497,-0.4389
155870,Br4Cl2In1Pa1,67c3a32c8a,PaIn(Br2Cl)2,"['Cl', 'Br', 'In', 'Pa']",8,330.0478,3.7049,1,P1,1,triclinic,-37.106,-1.8244,-0.0352,2D,,True,0.0,,-0.0352,-0.0352
155902,Br18Tb3Y3,67c92e8793,TbYBr6,"['Br', 'Y', 'Tb']",24,1069.4736,3.3876,1,P1,1,triclinic,-118.3721,-2.3169,-0.0311,2D,,True,0.0,,-0.0311,-0.0001
155966,F20Rb2Sm1Y5,67d17ba0b3,Rb2SmY5F20,"['F', 'Rb', 'Y', 'Sm']",28,410.233,4.6379,4mm,I4mm,107,tetragonal,-196.5438,-4.2608,-0.0397,intercalated ion,7.0168,True,0.0,,-0.0397,-0.0043
155971,Br2Rb12Se8Tl2,67d28fa8f5,Rb6TlSe4Br,"['Se', 'Br', 'Rb', 'Tl']",24,927.8425,3.9836,6mm,P6_3mc,186,hexagonal,-78.8624,-1.2971,-0.0585,intercalated ion,,False,0.0,,-0.0585,-0.0433
155976,Gd1In6O18Pr5,67d371a4be,Pr5GdIn6O18,"['O', 'In', 'Pr', 'Gd']",30,467.4888,6.5311,3m,P31m,157,trigonal,-230.4171,-2.8954,-0.0148,3D,2.0013,True,0.0,,-0.0148,-0.0141
156064,Br12Ge2Si2Sm12,67e16d26c1,Sm6SiGeBr6,"['Si', 'Ge', 'Br', 'Sm']",28,841.8297,5.8478,222,F222,22,orthorhombic,-142.2026,-1.6371,-0.0732,3D,0.0004,True,0.0,,-0.0732,-0.0575
156081,Br16Os2Ru1Sc12,67e4aafc81,Sc12Os2RuBr16,"['Sc', 'Br', 'Ru', 'Os']",31,934.9826,4.0839,1,P1,1,triclinic,-185.0652,-1.6502,-0.0137,intercalated ion,0.1875,True,0.0,,-0.0137,-0.0092
156111,B1Br12I3,67eb19e900,B(IBr4)3,"['B', 'Br', 'I']",16,816.6536,2.7458,1,P1,1,triclinic,-40.9208,-0.6266,-0.2264,1D,,True,0.0,,-0.2264,-0.0514
156140,Br12Pr12Pt3Ru1,67ef7f0b0d,Pr12Ru(PtBr4)3,"['Br', 'Ru', 'Pr', 'Pt']",28,915.2546,6.0526,32,R32,155,trigonal,-151.0989,-1.6642,-0.0054,3D,inf,True,-0.0,,-0.0054,-0.0011
156153,Bi5Cd1Cl2Tb10,67f15fec27,Tb10CdBi5Cl2,"['Cl', 'Cd', 'Tb', 'Bi']",18,487.7787,9.5915,mm2,Amm2,38,orthorhombic,-87.8372,-0.968,-0.0061,3D,0.0034,False,0.0,,-0.0061,-0.002
156191,Ce3O18P4Th1,67f64ec70d,Ce3Th(P2O9)2,"['O', 'P', 'Ce', 'Th']",26,420.3597,4.2042,m,Cm,8,monoclinic,-224.0986,-3.3911,-0.025,3D,1.539,True,0.0,,-0.025,-0.025
156220,Nb2O24P6Tc2,67fb5a8427,NbTc(PO4)3,"['O', 'P', 'Nb', 'Tc']",34,494.9019,3.193,1,P1,1,triclinic,-281.3635,-2.6238,-0.0739,intercalated ion,1.0856,True,0.0,,-0.0739,-0.0739
156221,Eu1O14Ta2Tb5,67fb7d8ab3,Tb5EuTa2O14,"['O', 'Eu', 'Tb', 'Ta']",22,304.3373,8.3616,2,C2,5,monoclinic,-209.6756,-3.7829,-0.0174,3D,0.1209,False,0.0,,-0.0174,-0.006
156229,Ca1Np1O12Y5,67fcf00d52,CaY5NpO12,"['O', 'Ca', 'Y', 'Np']",19,276.7373,5.482,1,P1,1,triclinic,-178.0082,-3.7551,-0.1584,intercalated ion,0.8081,True,0.0,,-0.1584,-0.0623
156242,Br6La5Pr6Si14Sm1,67fe1fad5a,La5Pr6Sm(Si7Br3)2,"['Si', 'Br', 'La', 'Pr', 'Sm']",32,816.5612,5.212,m,Pm,6,monoclinic,-180.9213,-1.1582,-0.0439,3D,0.0073,True,0.0,,-0.0439,-0.0206
156243,Ca1F24Re4Sr1,67fe21cea5,SrCaRe4F24,"['F', 'Ca', 'Sr', 'Re']",30,614.6738,3.5889,-4,I-4,82,tetragonal,-184.1879,-2.828,-0.0549,intercalated ion,,True,0.0,,-0.0549,-0.0139
156261,Gd1O13Pb4Ta3,67ffe6492f,GdTa3Pb4O13,"['O', 'Gd', 'Ta', 'Pb']",21,322.4734,8.9439,3m,R3m,160,trigonal,-187.2352,-2.7815,-0.0174,3D,1.7476,True,-0.0,,-0.0174,-0.0161
156267,B4Ca4Eu3O16Tm1,6801156ce9,Ca4Eu3Tm(BO4)4,"['B', 'O', 'Ca', 'Eu', 'Tm']",28,380.8067,4.7285,m,Pm,6,monoclinic,-242.7146,-3.3377,-0.0378,intercalated ion,0.0031,False,0.0,,-0.0378,-0.0081
156274,Ir2O19Pd4Pr4,6801a0dd71,Pr4Ir2Pd4O19,"['O', 'Pd', 'Pr', 'Ir']",29,369.7021,7.5356,222,I222,23,orthorhombic,-208.7087,-1.9716,-0.0776,3D,0.0047,True,0.0,,-0.0776,-0.0454
156295,Gd2In3O18Te3Tl1,68058d5e67,Gd2TlIn3(TeO6)3,"['O', 'In', 'Te', 'Gd', 'Tl']",27,369.3338,6.8975,2,C2,5,monoclinic,-194.8572,-2.1331,-0.0151,3D,1.4569,True,0.0,,-0.0151,-0.0131
156304,Ag1Al6Cs2F21,6806d50943,Cs2Al6AgF21,"['F', 'Al', 'Ag', 'Cs']",30,429.8784,3.6099,2,C2,5,monoclinic,-175.7923,-3.6185,-0.0149,intercalated ion,3.8863,False,0.0,,-0.0149,-0.0149
156316,Cs4F20Pd4,68091691bf,CsPdF5,"['F', 'Pd', 'Cs']",28,548.9918,4.0448,mm2,Pmc2_1,26,orthorhombic,-121.9803,-2.1232,-0.0338,intercalated ion,1.3447,True,0.0,,-0.0338,-0.0338
156329,Au1Cl1I10,680c1c3cc6,AuI10Cl,"['Cl', 'I', 'Au']",12,648.2655,3.846,1,P1,1,triclinic,-25.3515,-0.4157,-0.2869,0D,,True,0.0,,-0.2869,-0.2208
156372,K2O12Pd1Te3,681179aa3a,K2Te3PdO12,"['O', 'K', 'Pd', 'Te']",18,266.637,4.7294,2,C2,5,monoclinic,-103.4691,-1.5146,-0.0822,intercalated ion,1.2111,True,0.0,,-0.0822,-0.0626
156430,O24Sc4Sm4W4,681b866e84,SmScWO6,"['O', 'Sc', 'Sm', 'W']",36,463.4469,6.8099,mm2,Pna2_1,33,orthorhombic,-331.8771,-3.2525,-0.0315,3D,3.5998,False,0.0,,-0.0315,-0.0138
156436,Ir1La5O12Sn1,681c329b54,La5SnIrO12,"['O', 'Sn', 'La', 'Ir']",19,301.9928,6.5843,2,C2,5,monoclinic,-157.2894,-3.1782,-0.0127,3D,0.5158,True,0.0,,-0.0127,-0.0127
156544,Al2B2Be2O14Pr4,682dbd4a33,Pr2BeAlBO7,"['Be', 'B', 'O', 'Al', 'Pr']",24,280.9105,5.2092,2,P2_1,4,monoclinic,-200.327,-3.4835,-0.004,intercalated ion,4.9364,False,0.0,,-0.004,-0.004