Unnamed: 0,Composition,MaterialId,Reduced Formula,Elements,NSites,Volume,Density,Point Group,Space Group,Space Group Number,Crystal System,Corrected Energy,Formation Energy Per Atom,Decomposition Energy Per Atom,Dimensionality Cheon,Bandgap,Is Train,Decomposition Energy Per Atom All,Decomposition Energy Per Atom Relative,Decomposition Energy Per Atom MP,Decomposition Energy Per Atom MP OQMD
136705,Br18Cs6Rh3Tm1,5afd12f5e3,Cs6Tm(RhBr6)3,"['Br', 'Rh', 'Cs', 'Tm']",28,1071.2378,4.206,3m,P3m1,156,trigonal,-106.5735,-1.6131,-0.0514,intercalated ion,1.4536,True,0.0,,-0.0514,-0.041
136736,Bi1Cl2Pr10Sn5,5b01cf1df4,Pr10Sn5BiCl2,"['Cl', 'Sn', 'Pr', 'Bi']",18,538.5197,7.0382,mm2,Amm2,38,orthorhombic,-95.0192,-1.0875,-0.069,3D,0.0007,True,0.0,,-0.069,-0.0684
136764,Br12Ho5P2Tb3,5b0686d503,Tb3Ho5(PBr6)2,"['P', 'Br', 'Tb', 'Ho']",22,722.0057,5.3409,m,Pm,6,monoclinic,-112.2399,-2.0434,-0.1131,3D,,True,0.0,,-0.1131,-0.0106
136788,Al4Br16K3Rb1,5b0abba45f,K3Rb(AlBr4)4,"['Al', 'K', 'Br', 'Rb']",24,933.4419,2.827,1,P1,1,triclinic,-88.151,-1.7778,-0.0063,intercalated ion,,True,0.0,,-0.0063,-0.005
136800,Gd5O14Pr1Ta2,5b0d8bbf4d,PrGd5Ta2O14,"['O', 'Pr', 'Gd', 'Ta']",22,313.7709,8.0073,1,P1,1,triclinic,-251.7717,-3.8011,-0.0043,3D,2.8405,False,0.0,,-0.0043,-0.0041
136801,Bi2Gd5Lu1O14,5b0db7fefe,Gd5Lu(BiO7)2,"['O', 'Gd', 'Lu', 'Bi']",22,312.6337,8.5152,1,P1,1,triclinic,-221.6084,-3.1615,-0.0855,3D,,True,0.0,,-0.0855,-0.0656
136822,Cl2Ho5Tb5Tl6,5b1085bc1c,Tb5Ho5(Tl3Cl)2,"['Cl', 'Tb', 'Ho', 'Tl']",18,495.0655,9.7824,mm2,Amm2,38,orthorhombic,-76.8185,-0.7149,-0.0517,3D,,True,-0.0,,-0.0517,-0.0441
136848,Ca1Cd5Np2O12,5b1595bbfd,CaNp2Cd5O12,"['O', 'Ca', 'Cd', 'Np']",20,300.9121,6.998,1,P1,1,triclinic,-139.7913,-2.395,-0.1694,intercalated ion,0.7349,False,0.0,,-0.1694,-0.0462
136849,Br18Eu1Nb6Rb1,5b15a73f42,RbEu(NbBr3)6,"['Br', 'Rb', 'Nb', 'Eu']",26,839.8531,4.4153,3,R3,146,trigonal,-140.5596,-1.5082,-0.0215,intercalated ion,,True,0.0,,-0.0215,-0.0189
136856,As6Nb3O24Tm1,5b1712e2db,TmNb3(AsO4)6,"['O', 'As', 'Nb', 'Tm']",34,585.382,3.6343,3,R3,146,trigonal,-259.11,-2.2831,-0.0305,3D,3.0177,True,0.0,,-0.0305,-0.0141
136913,As8Bi1La3O18,5b20ae6bf7,La3Bi(As4O9)2,"['O', 'As', 'La', 'Bi']",30,514.9557,4.879,1,P1,1,triclinic,-213.7166,-2.2894,-0.0394,3D,,True,0.0,,-0.0394,-0.0324
136935,Br18Ir3Rb6Sc1,5b231c1e70,Rb6Sc(IrBr6)3,"['Sc', 'Br', 'Rb', 'Ir']",28,976.6183,4.3743,3m,P3m1,156,trigonal,-110.0924,-1.4963,-0.0076,intercalated ion,1.6118,True,-0.0,,-0.0076,-0.0074
137027,Lu1Nb6O12Ta1,5b32dfaa50,LuTaNb6O12,"['O', 'Nb', 'Lu', 'Ta']",20,286.85,6.3987,3,R3,146,trigonal,-194.9762,-2.9307,-0.0191,3D,,True,0.0,,-0.0191,-0.0189
137104,Bi2La2O16Ta4,5b40672664,LaTa2BiO8,"['O', 'La', 'Ta', 'Bi']",24,356.1834,7.8115,m,Pc,7,monoclinic,-221.3027,-3.2105,-0.001,3D,3.5085,True,0.0,,-0.001,-0.001
137156,Ba8Ga4O20Tb2Y2,5b49c56721,Ba4TbY(GaO5)2,"['O', 'Ga', 'Y', 'Ba', 'Tb']",36,617.6176,5.8966,m,Pc,7,monoclinic,-261.0675,-3.1234,-0.0112,intercalated ion,,False,0.0,,-0.0112,-0.0104
137165,C16Cl24Sm24,5b4ab8362c,Sm3C2Cl3,"['C', 'Cl', 'Sm']",64,1491.2581,5.1797,222,C222_1,20,orthorhombic,-406.3651,-1.5801,-0.1548,inf,,True,0.0,,-0.1548,-0.0127
137181,F20Os1Pa3,5b4db8e252,Pa3OsF20,"['F', 'Os', 'Pa']",24,433.1044,4.8436,m,Cm,8,monoclinic,-164.1485,-3.5895,-2.9842,0D,,True,0.0,,-2.9842,-1.1736
137193,Ac4Br5H1N2,5b4f268b63,Ac4HBr5N2,"['H', 'N', 'Br', 'Ac']",12,362.6981,6.1191,m,Cm,8,monoclinic,-68.3177,-1.9652,-0.0839,3D,,True,0.0,,-0.0839,-0.0834
137204,Gd1La4O14Sm1Ta2,5b50288019,La4SmGdTa2O14,"['O', 'La', 'Sm', 'Gd', 'Ta']",22,330.2495,7.2864,m,Pm,6,monoclinic,-215.7181,-3.8269,-0.0078,3D,3.3489,True,0.0,,-0.0078,-0.0078
137214,F5Rb1,5b518ab83a,RbF5,"['F', 'Rb']",6,104.7906,2.8596,1,P1,1,triclinic,-18.777,-1.3732,-0.1628,intercalated ion,1.9765,True,0.0,,-0.1628,-0.1566
137284,Br2La5Pb6Th5,5b5c780917,La5Th5(Pb3Br)2,"['Br', 'La', 'Pb', 'Th']",18,547.8677,9.8739,mm2,Amm2,38,orthorhombic,-101.2509,-0.7751,-0.0297,3D,,True,0.0,,-0.0297,-0.0256
137297,Ho5O12U2,5b5dd62351,Ho5U2O12,"['O', 'Ho', 'U']",19,271.6245,9.1254,1,P1,1,triclinic,-180.3699,-3.9737,-0.0426,3D,0.1304,True,0.0,,-0.0426,-0.0117
137433,B2Ca6Ge4Ho6O26,5b757dfcca,Ca3Ho3Ge2BO13,"['B', 'O', 'Ca', 'Ge', 'Ho']",44,580.6505,5.6001,mm2,Pnn2,34,orthorhombic,-345.5794,-3.308,-0.0,intercalated ion,3.6344,True,0.0,,-0.0,-0.0
137498,Cu4Eu2La2O12,5b80797467,LaEu(CuO3)2,"['O', 'Cu', 'La', 'Eu']",20,271.5019,6.2869,mm2,Pmc2_1,26,orthorhombic,-152.0844,-2.2928,-0.0519,3D,0.0022,False,0.0,,-0.0519,-0.0075
137533,Ge1Ir3O24Pr8,5b86e31389,Pr8Ge(IrO8)3,"['O', 'Ge', 'Pr', 'Ir']",36,530.2825,6.7656,1,P1,1,triclinic,-284.9408,-2.689,-0.0564,3D,0.0008,True,0.0,,-0.0564,-0.0361
137536,Lu5O12Sb1Zr1,5b872baea9,Lu5ZrSbO12,"['O', 'Zr', 'Sb', 'Lu']",19,238.9641,8.8933,1,P1,1,triclinic,-165.4708,-3.727,-0.0251,3D,,True,0.0,,-0.0251,-0.0251
137567,F14Pu2Y2,5b8a39bb49,YPuF7,"['F', 'Y', 'Pu']",18,308.937,5.0084,2,P2_1,4,monoclinic,-142.1631,-4.1074,-0.0277,3D,0.6124,True,0.0,,-0.0277,-0.0268
137573,O18Os6Sm1Y1,5b8cc05c94,SmY(OsO3)6,"['O', 'Y', 'Sm', 'Os']",26,318.8354,8.6905,m,Pm,6,monoclinic,-217.8424,-1.9319,-0.0321,3D,0.0009,False,0.0,,-0.0321,-0.0259
137600,Bi1Cl6Na3,5b8f43b878,Na3BiCl6,"['Na', 'Cl', 'Bi']",10,278.1349,2.9294,3,R3,146,trigonal,-37.5288,-1.858,-0.0355,intercalated ion,4.1221,True,-0.0,,-0.0355,-0.0121
137601,C2Cl2Sm3Tb1,5b8f758a44,TbSm3(CCl)2,"['C', 'Cl', 'Sm', 'Tb']",8,166.8003,7.0178,3m,P3m1,156,trigonal,-50.5219,-1.1976,-0.1663,3D,,True,0.0,,-0.1663,-0.0019
137687,Br18Cs3Rb3Rh3V1,5b9e681fb7,Cs3Rb3V(RhBr6)3,"['V', 'Br', 'Rb', 'Rh', 'Cs']",28,987.7209,4.124,3m,P3m1,156,trigonal,-107.0221,-1.4555,-0.0244,intercalated ion,0.181,False,0.0,,-0.0244,-0.0244
137706,Br12Si2Sm7Tb1,5ba15ef453,TbSm7(SiBr6)2,"['Si', 'Br', 'Sm', 'Tb']",22,804.3793,4.5963,m,Pm,6,monoclinic,-109.8423,-1.8947,-0.072,3D,0.0057,True,0.0,,-0.072,-0.0591
137730,Cl18Hf1P2Zr1,5ba5ca2076,HfZr(PCl9)2,"['P', 'Cl', 'Zr', 'Hf']",22,709.123,2.271,1,P1,1,triclinic,-99.6625,-1.6844,-0.0486,0D,,True,0.0,,-0.0486,-0.0462
137883,Ca3Mg2O12Ru2Y1,5bc2265922,Ca3YMg2(RuO6)2,"['O', 'Mg', 'Ca', 'Y', 'Ru']",20,235.5959,4.5946,1,P1,1,triclinic,-147.1119,-2.6752,-0.0365,intercalated ion,0.003,True,0.0,,-0.0365,-0.0365
137898,Cl12Ir4La6Pr6,5bc49af3f4,La3Pr3(IrCl3)2,"['Cl', 'La', 'Pr', 'Ir']",28,858.7585,5.5557,2,C2,5,monoclinic,-169.5911,-1.9198,-0.0412,3D,,True,0.0,,-0.0412,-0.0392
137910,Br12Ga2I2Se2,5bc7cc355f,GaSeIBr6,"['Ga', 'Se', 'Br', 'I']",18,713.4395,3.5146,m,Pc,7,monoclinic,-52.0852,-0.9081,-0.0771,0D,1.8913,True,0.0,,-0.0771,-0.0188
137920,Cl15S1Sm1Th5,5bc9852ea7,SmTh5SCl15,"['S', 'Cl', 'Sm', 'Th']",22,683.2592,4.5554,4mm,I4mm,107,tetragonal,-129.0772,-2.5193,-0.0357,3D,,False,0.0,,-0.0357,-0.0252
137998,Gd1Nb2O14Pr4Tb1,5bd52ba34e,TbPr4GdNb2O14,"['O', 'Nb', 'Pr', 'Gd', 'Tb']",22,325.4283,6.5804,m,Pm,6,monoclinic,-207.8611,-3.6615,-0.0046,3D,,True,0.0,,-0.0046,-0.003
138156,H2Na5O6,5bf17c49ef,Na5(HO3)2,"['H', 'O', 'Na']",13,168.8624,2.0942,1,P1,1,triclinic,-61.4427,-1.4121,-0.0822,intercalated ion,0.1257,False,0.0,,-0.0822,-0.0795
138231,Cl18In1Tl1Zr4,5bfa7577af,Zr4TlInCl18,"['Cl', 'Zr', 'In', 'Tl']",24,788.4438,2.7848,2,P2,3,monoclinic,-123.2946,-2.1132,-0.0197,intercalated ion,,True,0.0,,-0.0197,-0.0032
138255,Ca1F12Nb1Os1,5c0093a23c,CaNbOsF12,"['F', 'Ca', 'Nb', 'Os']",15,270.0772,3.389,1,P1,1,triclinic,-92.3131,-3.0694,-0.0637,0D,1.4414,True,0.0,,-0.0637,-0.0636
138357,La1Li2O24P8Pr1,5c126931ff,Li2LaPr(PO3)8,"['Li', 'O', 'P', 'La', 'Pr']",36,483.9793,3.1753,2,C2,5,monoclinic,-281.2878,-2.936,-0.0164,intercalated ion,,True,-0.0,,-0.0164,-0.0025
138408,In3Li4O8Tb1,5c1d190829,Li4TbIn3O8,"['Li', 'O', 'In', 'Tb']",16,189.5793,5.7734,m,Pm,6,monoclinic,-98.0585,-2.3719,-0.006,intercalated ion,2.4269,True,0.0,,-0.006,-0.0007
138412,Bi1In3O18Te3Tl2,5c1d9250af,Tl2In3Bi(TeO6)3,"['O', 'In', 'Te', 'Tl', 'Bi']",27,370.7667,7.3136,2,C2,5,monoclinic,-159.3946,-1.6309,-0.019,3D,,True,0.0,,-0.019,-0.0185
138424,Ca2O19Os6Pr2,5c1f44ca66,Ca2Pr2Os6O19,"['O', 'Ca', 'Pr', 'Os']",29,380.8457,7.8802,2,C2,5,monoclinic,-238.0483,-2.1759,-0.0467,intercalated ion,0.0005,False,-0.0,,-0.0467,-0.0137
138450,Br18Lu1Rb6Tm3,5c242d0af2,Rb6Tm3LuBr18,"['Br', 'Rb', 'Tm', 'Lu']",28,1061.5876,4.1183,3,R3,146,trigonal,-114.9784,-2.2029,-0.0601,intercalated ion,4.2053,True,0.0,,-0.0601,-0.0178
138463,Br12Ho3Si2Sm5,5c263b0b93,Sm5Ho3(SiBr6)2,"['Si', 'Br', 'Sm', 'Ho']",22,781.4396,4.8059,m,Pm,6,monoclinic,-109.3764,-1.8883,-0.0592,3D,0.0016,False,-0.0,,-0.0592,-0.0545
138473,Br22Cs2Nb1Ta3,5c274bab2c,Cs2Ta3NbBr22,"['Br', 'Nb', 'Cs', 'Ta']",28,1123.0332,3.9323,1,P1,1,triclinic,-125.4098,-1.4976,-0.0287,intercalated ion,1.7311,True,0.0,,-0.0287,-0.0044
138500,Bi3Br1P1Pr10Sn3,5c2abc4833,Pr10Sn3Bi3PBr,"['P', 'Br', 'Sn', 'Pr', 'Bi']",18,552.3441,7.525,1,P1,1,triclinic,-96.814,-1.0142,-0.0271,3D,0.0008,False,0.0,,-0.0271,-0.0236
138531,Br1F34S1,5c30613ee0,SBrF34,"['F', 'S', 'Br']",36,676.4338,1.8606,1,P1,1,triclinic,-103.8158,-0.9181,-0.2873,0D,,True,0.0,,-0.2873,-0.2872
138800,Bi3Cs1O12Zn4,5c5e29fa50,CsZn4(BiO4)3,"['O', 'Zn', 'Cs', 'Bi']",20,292.0824,6.8988,3,R3,146,trigonal,-108.0919,-1.5556,-0.0349,3D,0.2395,True,0.0,,-0.0349,-0.013
138809,Ba3Nb2O26Si4W4,5c5f7dcafd,Ba3Nb2Si4(W2O13)2,"['O', 'Si', 'Nb', 'Ba', 'W']",39,567.4399,5.4474,m,Cm,8,monoclinic,-342.1251,-2.9227,-0.0178,intercalated ion,1.4264,False,0.0,,-0.0178,-0.0118
138831,Ca12Ge7In8O48Ti5,5c6263d5f5,Ca12Ti5In8Ge7O48,"['O', 'Ca', 'Ti', 'Ge', 'In']",80,1055.3527,4.587,1,P1,1,triclinic,-581.3956,-2.8247,-0.0023,intercalated ion,3.1857,True,0.0,,-0.0023,-0.0023
138855,As4Hg4O16Rb4,5c68407ef0,RbHgAsO4,"['O', 'As', 'Rb', 'Hg']",28,552.075,5.113,mm2,Pna2_1,33,orthorhombic,-147.3783,-1.5871,-0.1765,intercalated ion,1.8131,True,0.0,,-0.1765,-0.0188
138875,Al2Ga3La3O14Ti1,5c6c54311c,La3TiAl2Ga3O14,"['O', 'Al', 'Ti', 'Ga', 'La']",23,302.6145,5.2223,32,P321,150,trigonal,-183.6428,-3.2649,-0.0012,3D,3.2522,True,0.0,,-0.0012,-0.0002
138906,Bi1Ca1F12Nb1,5c72912078,CaNbBiF12,"['F', 'Ca', 'Nb', 'Bi']",15,279.8853,3.3814,1,P1,1,triclinic,-85.3075,-3.0915,-0.052,intercalated ion,2.777,True,0.0,,-0.052,-0.0519
138919,Ho1O20Tm7V4,5c7429a6e4,HoTm7V4O20,"['O', 'V', 'Ho', 'Tm']",32,420.6376,7.387,m,Pm,6,monoclinic,-284.0381,-3.5259,-0.0029,3D,1.8957,True,0.0,,-0.0029,-0.0029
138946,Br12Hf1Li4U1,5c79412a24,Li4HfUBr12,"['Li', 'Br', 'Hf', 'U']",18,552.603,4.2163,32,P312,149,trigonal,-81.4858,-1.831,-0.0161,intercalated ion,0.1786,True,0.0,,-0.0161,-0.0045
138947,Br12La1Li1Os1Sm5,5c796f8956,LiLaSm5OsBr12,"['Li', 'Br', 'La', 'Sm', 'Os']",20,698.5209,4.8655,1,P1,1,triclinic,-100.4248,-1.9558,-0.0358,intercalated ion,0.0769,True,0.0,,-0.0358,-0.0352
138951,O18Pb2Rb4Si6,5c7a2d163f,Rb2Si3PbO9,"['O', 'Si', 'Rb', 'Pb']",30,499.7659,4.0296,3,R3,146,trigonal,-214.2165,-2.7085,-0.0525,intercalated ion,2.2956,False,-0.0,,-0.0525,-0.0498
139064,K6O9Os2,5c8f2c6e01,K6Os2O9,"['O', 'K', 'Os']",17,325.0117,3.8781,m,Cm,8,monoclinic,-103.6377,-1.7641,-0.1551,intercalated ion,0.0046,True,0.0,,-0.1551,-0.0461
139074,As4Hg2K4O14,5c906534b0,K2HgAs2O7,"['O', 'K', 'As', 'Hg']",24,454.3642,3.9516,-42m,P-42_1m,113,tetragonal,-134.963,-1.7503,-0.0215,intercalated ion,1.836,True,0.0,,-0.0215,-0.0215
139078,Br12C2Cs1Pr5Sm1,5c916eb09c,CsPr5Sm(CBr6)2,"['C', 'Br', 'Cs', 'Pr', 'Sm']",21,731.106,4.4759,1,P1,1,triclinic,-108.9937,-1.9704,-0.0258,intercalated ion,0.0047,True,0.0,,-0.0258,-0.0258
139172,Br15Pt1Th5Y1,5ca428da77,YTh5PtBr15,"['Br', 'Y', 'Pt', 'Th']",22,816.0435,5.3776,4mm,I4mm,107,tetragonal,-119.133,-2.0442,-0.0305,3D,0.7984,True,0.0,,-0.0305,-0.0231
139194,Eu4F28Rh2Ru2,5ca80c3bc9,Eu2RuRhF14,"['F', 'Ru', 'Rh', 'Eu']",36,573.6357,4.4804,2,P2_1,4,monoclinic,-230.6818,-2.8532,-0.0809,3D,,True,0.0,,-0.0809,-0.0249
139210,Br12La5Li1Os1Y1,5caa80c64d,LiLa5YOsBr12,"['Li', 'Br', 'Y', 'La', 'Os']",20,732.0659,4.3992,1,P1,1,triclinic,-104.765,-2.0419,-0.033,intercalated ion,0.0902,True,0.0,,-0.033,-0.0323
139226,O14Pr5Sm1Ta1W1,5cad403c68,Pr5SmTaWO14,"['O', 'Pr', 'Sm', 'Ta', 'W']",22,331.9319,7.2222,1,P1,1,triclinic,-200.6515,-3.5428,-0.0154,3D,2.6872,True,0.0,,-0.0154,-0.0154
139259,Cl18Hf2Na6Pa1,5cb24efcfd,Na6Hf2PaCl18,"['Na', 'Cl', 'Hf', 'Pa']",27,757.0534,2.9921,3m,P3m1,156,trigonal,-131.559,-2.2563,-0.0242,intercalated ion,0.695,True,-0.0,,-0.0242,-0.0237
139271,Ir3O16Sr4W1,5cb4560ec0,Sr4Ir3WO16,"['O', 'Sr', 'W', 'Ir']",24,376.0509,6.0361,2,P2,3,monoclinic,-176.9956,-2.1499,-0.1406,intercalated ion,0.3532,True,0.0,,-0.1406,-0.103
139287,F20Ho4K2Tb1Y1,5cb72f7cd6,K2TbYHo4F20,"['F', 'K', 'Y', 'Tb', 'Ho']",28,395.4682,5.7345,4mm,I4mm,107,tetragonal,-190.1476,-4.2952,-0.0003,intercalated ion,6.9826,True,0.0,,-0.0003,-0.0
139321,Ag1O7Sc1V2,5cbbdb3ea6,ScV2AgO7,"['O', 'Sc', 'V', 'Ag']",11,157.7836,3.8592,2,C2,5,monoclinic,-89.2465,-2.4798,-0.0266,3D,1.9428,True,0.0,,-0.0266,-0.019
139390,Ag1Br6U1,5cc613b738,UAgBr6,"['Br', 'Ag', 'U']",8,338.085,4.0536,2,C2,5,monoclinic,-35.6131,-1.4584,-0.028,1D,0.64,True,0.0,,-0.028,-0.028
139394,F28Ru1Tb4Tc3,5cc68baeb6,Tb4Tc3RuF28,"['F', 'Tc', 'Ru', 'Tb']",36,537.1589,4.8309,1,P1,1,triclinic,-231.6209,-3.3113,-0.0813,3D,,True,0.0,,-0.0813,-0.0803
139406,Ba4Ir2O12Rb4,5cc95c0db7,Rb2Ba2IrO6,"['O', 'Rb', 'Ba', 'Ir']",22,409.9878,5.9441,2,C2,5,monoclinic,-133.6839,-2.047,-0.148,intercalated ion,0.2568,True,-0.0,,-0.148,-0.0473
139424,O14W2Y6,5ccc3e7913,Y3WO7,"['O', 'Y', 'W']",22,299.1466,6.2454,222,C222_1,20,orthorhombic,-210.104,-3.4599,-0.0019,3D,2.4321,True,0.0,,-0.0019,-0.0019
139430,B4Ca4Ho1O16Tm3,5ccd20646d,Ca4HoTm3(BO4)4,"['B', 'O', 'Ca', 'Ho', 'Tm']",28,359.8745,5.22,m,Pm,6,monoclinic,-231.6396,-3.5615,-0.016,intercalated ion,4.3465,True,0.0,,-0.016,-0.012
139445,Cs4F24Na4W4,5ccfe03a12,CsNaWF6,"['F', 'Na', 'Cs', 'W']",36,712.4344,4.2302,mm2,Pna2_1,33,orthorhombic,-214.1087,-2.9864,-0.1723,intercalated ion,,False,0.0,,-0.1723,-0.0948
139453,Ir1La5O12Pt1,5cd1993744,La5IrPtO12,"['O', 'La', 'Ir', 'Pt']",19,296.4561,7.1351,2,C2,5,monoclinic,-156.1485,-3.0097,-0.031,3D,,True,0.0,,-0.031,-0.031
139458,Gd2In6La4O18,5cd2e0291f,La2GdIn3O9,"['O', 'In', 'La', 'Gd']",30,469.7537,6.5291,6mm,P6_3cm,185,hexagonal,-241.9886,-2.9506,-0.0098,3D,1.9423,True,0.0,,-0.0098,-0.0009
139489,Cl5H1Ir2Te12,5cd743977c,Te12HIr2Cl5,"['H', 'Cl', 'Te', 'Ir']",20,645.3126,5.3881,2,C2,5,monoclinic,-81.7791,-0.6874,-0.2067,1D,0.9272,False,0.0,,-0.2067,-0.1251
139490,Ce2F22Hf2Sc1Zr1,5cd75c6e4d,Ce2Hf2ZrScF22,"['F', 'Sc', 'Zr', 'Ce', 'Hf']",28,428.2386,4.6196,m,Cm,8,monoclinic,-206.5177,-4.2073,-0.0395,3D,0.074,True,-0.0,,-0.0395,-0.0395
139604,Br18Cs4Rb2Rh1V3,5cebd9cff1,Cs4Rb2V3RhBr18,"['V', 'Br', 'Rb', 'Rh', 'Cs']",28,990.412,4.0181,3m,P3m1,156,trigonal,-114.3873,-1.5987,-0.0623,intercalated ion,0.0123,False,0.0,,-0.0623,-0.0214
139607,Cl18K1La1Ta6,5cec37cf07,KLaTa6Cl18,"['Cl', 'K', 'La', 'Ta']",26,695.5704,4.5403,3,R3,146,trigonal,-160.4946,-1.9242,-0.0024,intercalated ion,1.4506,False,0.0,,-0.0024,-0.0013
139619,Ag1As4Eu1F24,5cee724638,EuAgAs4F24,"['F', 'As', 'Ag', 'Eu']",30,524.9734,3.2121,-4,I-4,82,tetragonal,-154.928,-2.5764,-0.0463,3D,,True,0.0,,-0.0463,-0.0341
139691,Ce1Gd1Ho4O14Ta2,5cfbfb76cb,CeGdHo4Ta2O14,"['O', 'Ce', 'Gd', 'Ho', 'Ta']",22,300.2437,8.5336,2,C2,5,monoclinic,-216.1694,-3.8565,-0.0123,3D,0.0002,True,0.0,,-0.0123,-0.0069
139694,F20O2Re2Ru2,5cfc764132,ReRuOF10,"['O', 'F', 'Ru', 'Re']",26,445.3366,3.6785,2,P2,3,monoclinic,-150.4528,-2.265,-0.041,0D,0.3057,True,0.0,,-0.041,-0.0381
139718,Br35Pd1,5d0019073f,PdBr35,"['Br', 'Pd']",36,1793.7135,2.6875,1,P1,1,triclinic,-80.9214,-0.5125,-0.4545,0D,,True,-0.0,,-0.4545,-0.4272
139721,Br3S24Zn1,5d011b5782,Zn(S8Br)3,"['S', 'Zn', 'Br']",28,932.4308,1.9139,3m,R3m,160,trigonal,-120.5845,-0.5407,-0.3825,0D,,True,0.0,,-0.3825,-0.3105
139730,Ba2In1Ir6O18,5d04c8a3a1,Ba2In(IrO3)6,"['O', 'In', 'Ba', 'Ir']",27,349.9927,8.686,1,P1,1,triclinic,-193.1364,-1.6464,-0.0388,intercalated ion,0.0007,True,-0.0,,-0.0388,-0.0333
139766,Ba4O14Ti4Zn2,5d0c1e644d,Ba2Ti2ZnO7,"['O', 'Ti', 'Zn', 'Ba']",24,421.2167,4.3191,-42m,P-42_1m,113,tetragonal,-188.237,-3.2162,-0.0069,intercalated ion,4.0026,True,0.0,,-0.0069,-0.0069
139814,B1Cl27,5d159d6b20,BCl27,"['B', 'Cl']",28,1005.0911,1.5993,3m,R3m,160,trigonal,-73.3159,-0.5974,-0.3926,0D,,False,-0.0,,-0.3926,-0.3923
139856,As2Cl26Os2P2,5d1bcc71f8,AsPOsCl13,"['P', 'Cl', 'As', 'Os']",32,1022.5504,2.4587,mm2,Cmc2_1,36,orthorhombic,-125.4956,-1.0886,-0.0824,0D,0.9794,True,0.0,,-0.0824,-0.0753
139939,Al6Ca4O16Se1,5d2ca0ffc5,Ca4Al6SeO16,"['O', 'Al', 'Ca', 'Se']",27,412.1417,2.6477,-4,I-4,82,tetragonal,-198.7613,-3.1705,-0.0129,intercalated ion,3.6915,True,0.0,,-0.0129,-0.0129
139978,Br10Ir1La3Pr3,5d334eb2ee,La3Pr3IrBr10,"['Br', 'La', 'Pr', 'Ir']",17,650.4248,4.6738,1,P1,1,triclinic,-88.9443,-2.0345,-0.01,3D,0.0176,True,0.0,,-0.01,-0.0098
139983,Ba4O16Te1W3,5d33e189a9,Ba4TeW3O16,"['O', 'Te', 'Ba', 'W']",24,425.4084,5.7943,2,P2,3,monoclinic,-191.8587,-2.6249,-0.0151,intercalated ion,2.6843,True,0.0,,-0.0151,-0.0151
140003,C2Cl2Ho3Tb1,5d37b1ca49,TbHo3(CCl)2,"['C', 'Cl', 'Tb', 'Ho']",8,154.7718,8.0322,3m,P3m1,156,trigonal,-50.6373,-1.2631,-0.154,3D,0.0093,True,0.0,,-0.154,-0.0052
140011,Cl7Sm2Tl1,5d38943c6b,Sm2TlCl7,"['Cl', 'Sm', 'Tl']",10,345.5337,3.62,1,P1,1,triclinic,-49.3147,-2.4576,-0.0645,intercalated ion,,True,0.0,,-0.0645,-0.0215
140020,Gd7Mo4O24Sm1,5d39d8c022,SmGd7(MoO6)4,"['O', 'Mo', 'Sm', 'Gd']",36,490.6189,6.833,1,P1,1,triclinic,-378.8446,-3.1517,-0.0038,3D,1.5669,True,0.0,,-0.0038,-0.0038
140032,F66Ti16Tl2,5d3c81f35a,Ti8TlF33,"['F', 'Ti', 'Tl']",84,1254.8634,3.2136,3m,P31c,159,trigonal,-562.4162,-3.6334,-0.0128,intercalated ion,,True,0.0,,-0.0128,-0.0128
140049,B3Br12Pr12S1,5d3fbc3aab,Pr12B3SBr12,"['B', 'S', 'Br', 'Pr']",28,825.4044,5.4605,32,R32,155,trigonal,-147.1953,-1.6431,-0.0309,3D,0.0016,True,0.0,,-0.0309,-0.0186
140062,Cl16Ga5K3,5d41de9620,K3Ga5Cl16,"['Cl', 'K', 'Ga']",24,753.352,2.2773,2,P2,3,monoclinic,-90.7848,-1.7807,-0.0026,intercalated ion,4.1836,True,0.0,,-0.0026,-0.0025
140102,Ba3O12Re2Tl1Tm1,5d4861b959,Ba3TmTl(ReO6)2,"['O', 'Ba', 'Tm', 'Re', 'Tl']",19,283.113,7.9164,3m,R3m,160,trigonal,-148.9054,-2.7393,-0.0136,intercalated ion,,False,-0.0,,-0.0136,-0.0136
140160,Ac19Cl1Si15Tb1,5d5008f9d4,Ac19TbSi15Cl,"['Si', 'Cl', 'Tb', 'Ac']",36,1112.2964,7.358,1,P1,1,triclinic,-187.8278,-0.6017,-0.2996,3D,,True,0.0,,-0.2996,-0.23
140161,Au1Br12La12Ru3,5d50096742,La12Ru3AuBr12,"['Br', 'Ru', 'La', 'Au']",28,936.0736,5.5451,32,R32,155,trigonal,-155.333,-1.62,-0.0184,3D,0.0049,False,0.0,,-0.0184,-0.0179
140169,Np3O10Pr1,5d50dc80f8,PrNp3O10,"['O', 'Pr', 'Np']",14,230.68,7.2841,2,C2,5,monoclinic,-141.3215,-3.4441,-0.1901,3D,0.0192,True,0.0,,-0.1901,-0.1456
140175,Cl18Cs1La1Nb6,5d5202a265,CsLa(NbCl3)6,"['Cl', 'Nb', 'Cs', 'La']",26,707.5971,3.4436,3,R3,146,trigonal,-150.0514,-1.9361,-0.0131,intercalated ion,1.0689,True,-0.0,,-0.0131,-0.0129
140203,Ba4F24Sm1Th3,5d55d94876,Ba4SmTh3F24,"['F', 'Ba', 'Sm', 'Th']",32,539.8602,5.6957,1,P1,1,triclinic,-216.4594,-4.2484,-0.013,intercalated ion,,True,0.0,,-0.013,-0.0079
140224,Na2Nb7O34P4Ta1Tl6,5d59591a08,Na2TaNb7Tl6(P2O17)2,"['O', 'Na', 'P', 'Nb', 'Ta', 'Tl']",54,815.1072,5.646,m,Pm,6,monoclinic,-434.3555,-2.6868,-0.0041,intercalated ion,,True,-0.0,,-0.0041,-0.0041
140252,Br6Pb1Tc1,5d5ee20163,TcPbBr6,"['Br', 'Tc', 'Pb']",8,309.0251,4.2162,1,P1,1,triclinic,-32.056,-1.0201,-0.0921,2D,0.8348,True,0.0,,-0.0921,-0.0174
140298,Ho3Ir4O24Tb5,5d68c1e129,Tb5Ho3(IrO6)4,"['O', 'Tb', 'Ho', 'Ir']",36,471.1205,8.6082,1,P1,1,triclinic,-289.8768,-2.7459,-0.0852,3D,,True,0.0,,-0.0852,-0.0525
140332,Ba8O20Te3W1,5d6dfc8894,Ba8Te3WO20,"['O', 'Te', 'Ba', 'W']",32,518.1147,6.3626,m,Pm,6,monoclinic,-219.9405,-2.6013,-0.0499,intercalated ion,1.7374,True,0.0,,-0.0499,-0.0097
140380,Br12Ho1Ir1La5Na1,5d76f0a79c,NaLa5HoIrBr12,"['Na', 'Br', 'La', 'Ho', 'Ir']",20,749.0404,4.5081,1,P1,1,triclinic,-101.1403,-2.1037,-0.0091,intercalated ion,0.3628,False,-0.0,,-0.0091,-0.009
140424,Ca9Ga12O48Pr3Sn8,5d7d69f4e7,Ca9Pr3Ga12(SnO6)8,"['O', 'Ca', 'Ga', 'Sn', 'Pr']",80,1049.4478,5.2813,222,F222,22,orthorhombic,-553.4413,-2.6892,-0.0254,intercalated ion,,True,0.0,,-0.0254,-0.0254