Unnamed: 0,Composition,MaterialId,Reduced Formula,Elements,NSites,Volume,Density,Point Group,Space Group,Space Group Number,Crystal System,Corrected Energy,Formation Energy Per Atom,Decomposition Energy Per Atom,Dimensionality Cheon,Bandgap,Is Train,Decomposition Energy Per Atom All,Decomposition Energy Per Atom Relative,Decomposition Energy Per Atom MP,Decomposition Energy Per Atom MP OQMD
123677,Nb3O18Sr8Ta1,52595e0c6f,Sr8TaNb3O18,"['O', 'Sr', 'Nb', 'Ta']",30,487.1665,4.9377,3,P3,143,trigonal,-244.4903,-3.325,-0.002,intercalated ion,3.6924,True,0.0,,-0.002,-0.0001
123682,Ag3Au1O4Rb4,5259ed1685,Rb4Ag3AuO4,"['O', 'Rb', 'Ag', 'Au']",12,308.2053,4.9914,mm2,Fmm2,42,orthorhombic,-47.7672,-1.0235,-0.0038,intercalated ion,1.4309,True,0.0,,-0.0038,-0.0038
123756,F24Mo1Pu3,52647f2593,Pu3MoF24,"['F', 'Mo', 'Pu']",28,533.3174,3.9976,m,Pm,6,monoclinic,-185.4401,-3.0684,-0.3844,0D,0.0008,True,-0.0,,-0.3844,-0.3832
123791,Bi5O18Pt3Tm1,526b4491df,TmBi5(PtO6)3,"['O', 'Tm', 'Pt', 'Bi']",27,382.5903,9.0584,2,C2,5,monoclinic,-173.8652,-1.5801,-0.0296,3D,,False,0.0,,-0.0296,-0.029
123799,F28Hf3Tb4V1,526ce701df,Tb4Hf3VF28,"['F', 'V', 'Tb', 'Hf']",36,550.3005,5.2929,1,P1,1,triclinic,-261.0892,-4.1687,-0.0115,3D,2.1255,False,0.0,,-0.0115,-0.0101
123849,O15Pb1Rh4Sr6,5276cab0d7,Sr6Rh4PbO15,"['O', 'Sr', 'Rh', 'Pb']",26,369.6816,6.2191,32,R32,155,trigonal,-174.3058,-2.1838,-0.0029,intercalated ion,0.0926,True,0.0,,-0.0029,-0.0028
123859,Bi6O20Pr1Se4Sm1,5278968695,PrSmBi6(SeO5)4,"['O', 'Se', 'Pr', 'Sm', 'Bi']",32,541.4265,6.689,m,Cm,8,monoclinic,-207.4892,-1.9283,-0.0093,2D,3.2628,True,0.0,,-0.0093,-0.0082
123870,F28Sn1Tb4Tc3,527b5cddb5,Tb4Tc3SnF28,"['F', 'Tc', 'Sn', 'Tb']",36,541.2551,4.8485,1,P1,1,triclinic,-230.3203,-3.4214,-0.0907,,,,0.0,,-0.0907,-0.0907
123881,Al7Hg1O4Zr12,527e51276f,Zr12Al7HgO4,"['O', 'Al', 'Zr', 'Hg']",24,408.9545,6.2862,3,R3,146,trigonal,-179.8223,-1.289,-0.0123,3D,0.0126,True,0.0,,-0.0123,-0.0118
123889,Gd1Ho5O14Ru2,527f7d5268,GdHo5(RuO7)2,"['O', 'Ru', 'Gd', 'Ho']",22,295.0255,7.9251,2,C2,5,monoclinic,-195.3516,-3.2056,-0.0319,3D,,False,-0.0,,-0.0319,-0.0272
123919,Ir1O24Pd11Rb2,52845f7d60,Rb2IrPd11O24,"['O', 'Rb', 'Pd', 'Ir']",38,504.8007,6.3085,m,Cm,8,monoclinic,-223.7102,-0.9784,-0.1484,intercalated ion,0.0009,True,0.0,,-0.1484,-0.0466
123933,Br18Rb6Rh3Sc1,5285fa615a,Rb6Sc(RhBr6)3,"['Sc', 'Br', 'Rb', 'Rh']",28,962.9022,3.9746,3m,P3m1,156,trigonal,-107.4622,-1.5603,-0.0128,intercalated ion,1.3741,True,0.0,,-0.0128,-0.0128
123936,F24Pa3Tm3,5286641c22,TmPaF8,"['F', 'Tm', 'Pa']",30,444.3388,6.1882,1,P1,1,triclinic,-216.2142,-4.2789,-2.6298,3D,,True,0.0,,-2.6298,-1.0308
123955,Cl18Nb3Ta3Th1,5289189dba,ThTa3(NbCl6)3,"['Cl', 'Nb', 'Ta', 'Th']",25,700.9141,4.0079,1,P1,1,triclinic,-153.9973,-1.8973,-0.0195,3D,1.168,True,0.0,,-0.0195,-0.0187
123970,Br18C1Ga1In3Zr6,528c213bd2,Zr6In3GaCBr18,"['C', 'Ga', 'Br', 'Zr', 'In']",29,923.0769,4.3386,1,P1,1,triclinic,-146.3305,-1.5541,-0.0492,intercalated molecule,,True,0.0,,-0.0492,-0.0323
123999,Cl32Pt2Te6,528f2f03f8,Te3PtCl16,"['Cl', 'Te', 'Pt']",40,1329.5924,2.8603,mm2,Cmc2_1,36,orthorhombic,-132.1624,-1.0502,-0.054,0D,,True,0.0,,-0.054,-0.0068
124060,O12Pt1Rh1Tb5,5298cda710,Tb5PtRhO12,"['O', 'Rh', 'Tb', 'Pt']",19,259.8928,8.2078,2,C2,5,monoclinic,-153.3911,-3.0215,-0.0225,3D,0.1093,True,0.0,,-0.0225,-0.0222
124093,F24K5O16S4Sb8Tl3,529d5f2b5a,K5Tl3Sb8S4(O2F3)8,"['O', 'F', 'S', 'K', 'Sb', 'Tl']",60,1035.7465,4.2052,1,P1,1,triclinic,-332.313,-2.4176,-0.0062,intercalated ion,,True,0.0,,-0.0062,-0.0059
124127,Eu1F10Gd2Sr1,52a3f972cf,SrEuGd2F10,"['F', 'Sr', 'Eu', 'Gd']",14,212.087,5.8257,2,C2,5,monoclinic,-120.6047,-4.3797,-0.2528,intercalated ion,,True,0.0,,-0.2528,-0.0906
124161,Bi3La2O14Sm1Ta2,52a9c170cc,La2SmTa2Bi3O14,"['O', 'La', 'Sm', 'Ta', 'Bi']",22,328.0352,8.3069,m,Pm,6,monoclinic,-186.0726,-3.0375,-0.0046,3D,2.6024,True,0.0,,-0.0046,-0.0046
124238,Na2O6Pb1Te1,52b6090ae2,Na2TePbO6,"['O', 'Na', 'Te', 'Pb']",10,143.0486,5.5345,3,R3,146,trigonal,-56.2048,-1.7016,-0.0404,intercalated ion,,True,0.0,,-0.0404,-0.0381
124279,Bi7La1O20V4,52bca5e2ae,LaV4Bi7O20,"['O', 'V', 'La', 'Bi']",32,504.5372,6.9955,m,Pm,6,monoclinic,-237.2402,-2.1806,-0.0038,2D,1.6424,False,0.0,,-0.0038,-0.0022
124282,F28La4Mo2Ru2,52bd20db2a,La2MoRuF14,"['F', 'Mo', 'Ru', 'La']",36,600.6251,4.0961,2,P2_1,4,monoclinic,-233.8895,-3.344,-0.0481,3D,,False,-0.0,,-0.0481,-0.047
124313,Br12Ca1La5Os1Tb1,52c1b5fadf,CaLa5TbOsBr12,"['Ca', 'Br', 'La', 'Tb', 'Os']",20,749.4195,4.5259,1,P1,1,triclinic,-103.6165,-2.0713,-0.0473,intercalated ion,0.1877,True,0.0,,-0.0473,-0.0444
124364,Cl8Ti1,52c98c032b,TiCl8,"['Cl', 'Ti']",9,449.5381,1.2245,1,P1,1,triclinic,-35.4412,-1.4175,-0.2613,0D,2.3154,True,0.0,,-0.2613,-0.2612
124369,Bi1Cl8Ho1,52ca852fcb,HoBiCl8,"['Cl', 'Ho', 'Bi']",10,398.2343,2.7418,2,C2,5,monoclinic,-41.2236,-1.7963,-0.1705,intercalated molecule,2.9669,True,0.0,,-0.1705,-0.0159
124375,Au2Br12Ir2La12,52cb2fbb88,La6IrAuBr6,"['Br', 'La', 'Ir', 'Au']",28,947.9976,5.9627,222,F222,22,orthorhombic,-150.837,-1.7049,-0.0065,3D,inf,True,0.0,,-0.0065,-0.0056
124389,Br18K1La1Nb6,52cda7e6a3,KLa(NbBr3)6,"['K', 'Br', 'Nb', 'La']",26,809.2156,4.4605,3,R3,146,trigonal,-135.8543,-1.5283,-0.0162,intercalated ion,1.0925,True,0.0,,-0.0162,-0.0162
124412,Cd1La5O12Os1,52d1851aa5,La5CdOsO12,"['O', 'Cd', 'La', 'Os']",19,307.0523,6.431,1,P1,1,triclinic,-154.8503,-3.0866,-0.0189,3D,0.2287,False,0.0,,-0.0189,-0.0188
124430,Al4Be4Ga2O16V2,52d3c3e545,Be2Al2VGaO8,"['Be', 'O', 'Al', 'V', 'Ga']",28,252.3576,4.2198,mm2,Pmn2_1,31,orthorhombic,-216.9296,-2.9857,-0.0071,intercalated ion,1.7891,True,0.0,,-0.0071,-0.0065
124462,Ge4Ho1O20Pr7,52d81b7f4e,Pr7Ho(GeO5)4,"['O', 'Ge', 'Pr', 'Ho']",32,514.0817,5.6909,1,P1,1,triclinic,-259.4998,-3.25,-0.0951,3D,3.9592,True,0.0,,-0.0951,-0.0039
124486,Li2Mg2O24Sc4V6,52dbcba015,LiMgSc2V3O12,"['Li', 'O', 'Mg', 'Sc', 'V']",38,524.6587,2.9496,1,P1,1,triclinic,-316.5466,-2.9196,-0.0165,intercalated ion,3.2223,True,-0.0,,-0.0165,-0.0086
124499,La4O16Ru2Sb2,52de0ee2f7,La2SbRuO8,"['O', 'Ru', 'Sb', 'La']",24,356.4355,5.8573,m,Pc,7,monoclinic,-189.8411,-2.6718,-0.0131,3D,0.4838,True,0.0,,-0.0131,-0.0122
124502,Ac3Ga5O14Ti1,52de689b74,Ac3TiGa5O14,"['O', 'Ti', 'Ga', 'Ac']",23,315.5332,6.8492,32,P321,150,trigonal,-173.9606,-3.0126,-0.0642,3D,,True,0.0,,-0.0642,-0.0577
124572,F34S1Sb1,52eaffd19d,SbSF34,"['F', 'S', 'Sb']",36,665.3598,1.996,1,P1,1,triclinic,-113.4416,-1.1163,-0.2637,0D,,True,0.0,,-0.2637,-0.2628
124594,O13Pb4Sn3W1,52eea7e9ec,Sn3Pb4WO13,"['O', 'Sn', 'W', 'Pb']",21,312.0594,8.3903,3m,R3m,160,trigonal,-144.8584,-1.938,-0.0093,3D,1.2623,True,0.0,,-0.0093,-0.0093
124663,Cs4O6Pa1Tb1,52fa550ba7,Cs4TbPaO6,"['O', 'Cs', 'Tb', 'Pa']",12,257.7695,6.5552,2,C2,5,monoclinic,-80.3317,-2.7428,-0.0225,2D,2.9641,True,0.0,,-0.0225,-0.0123
124678,Br18Cs6In3Ir1,52fd7ac7de,Cs6In3IrBr18,"['Br', 'In', 'Cs', 'Ir']",28,1090.4764,4.2217,3m,P3m1,156,trigonal,-95.8605,-1.5689,-0.0541,intercalated ion,1.3881,True,0.0,,-0.0541,-0.0496
124685,F34Sb1U1,52ff1e33e6,USbF34,"['F', 'Sb', 'U']",36,701.9115,2.3793,1,P1,1,triclinic,-131.652,-1.4234,-0.2629,0D,,False,0.0,,-0.2629,-0.2617
124723,Cu1Li3O28Pr20S20Ti8,5305f00b24,Li3Pr20Ti8Cu(S5O7)4,"['Li', 'O', 'S', 'Ti', 'Cu', 'Pr']",80,1387.094,5.2372,m,Pm,6,monoclinic,-633.4086,-3.044,-0.0204,intercalated ion,,False,0.0,,-0.0204,-0.0065
124733,As2Ir1O2Pr2Rh1,53079e5616,Pr2As2IrRhO2,"['O', 'As', 'Rh', 'Pr', 'Ir']",8,144.6032,8.7134,-42m,P-4m2,115,tetragonal,-61.0823,-2.0129,-0.0289,3D,,True,0.0,,-0.0289,-0.0014
124753,Lu1O14P4Pa1,530a9e835c,LuPa(P2O7)2,"['O', 'P', 'Lu', 'Pa']",20,324.8316,3.8539,1,P1,1,triclinic,-168.8343,-3.1937,-0.1778,3D,,True,0.0,,-0.1778,-0.1778
124757,Bi2Lu1O14Y5,530aec7e25,Y5Lu(BiO7)2,"['O', 'Y', 'Lu', 'Bi']",22,312.6337,6.7001,1,P1,1,triclinic,-184.0498,-3.1884,-0.0649,3D,,False,0.0,,-0.0649,-0.0269
124778,Cl23K1,530f2cb75b,KCl23,"['Cl', 'K']",24,1147.5107,1.2366,1,P1,1,triclinic,-61.0403,-0.7256,-0.5374,intercalated ion,,True,0.0,,-0.5374,-0.3941
124788,Ge1O12Rh1Y5,53107f5cc6,Y5GeRhO12,"['O', 'Ge', 'Y', 'Rh']",19,252.5673,5.3391,2,C2,5,monoclinic,-164.3334,-3.1915,-0.0223,3D,0.2711,True,0.0,,-0.0223,-0.0148
124815,Ba4O12Re2Ru1,53155a45d7,Ba4Re2RuO12,"['O', 'Ru', 'Ba', 'Re']",19,282.8256,7.1323,3m,R3m,160,trigonal,-150.2422,-2.5804,-0.0145,intercalated ion,0.4011,True,0.0,,-0.0145,-0.0105
124843,Cl18Nb5Sc1Ta1,531bad7a30,ScTaNb5Cl18,"['Cl', 'Sc', 'Nb', 'Ta']",25,661.7357,3.3339,1,P1,1,triclinic,-148.1735,-1.8481,-0.0058,3D,,True,-0.0,,-0.0058,-0.0055
124853,Ga4Lu3O20Sr8Tm1,531d446e1a,Sr8TmLu3(GaO5)4,"['O', 'Ga', 'Sr', 'Tm', 'Lu']",36,553.0292,5.9863,1,P1,1,triclinic,-258.4361,-3.2169,-0.0047,intercalated ion,,True,0.0,,-0.0047,-0.0047
124855,La1O12Os1Pr5,531d8a5b9c,LaPr5OsO12,"['O', 'La', 'Pr', 'Os']",19,301.9062,6.7414,1,P1,1,triclinic,-162.5532,-3.3216,-0.0091,3D,0.0046,True,0.0,,-0.0091,-0.009
124902,Gd4Nb1O12Ru1Tb1,5325b5a514,TbGd4NbRuO12,"['O', 'Nb', 'Ru', 'Gd', 'Tb']",19,265.7197,7.3359,1,P1,1,triclinic,-204.8713,-3.4306,-0.023,3D,0.7878,True,0.0,,-0.023,-0.0062
124944,Ba6Lu3O18Sc1Te2,532c96f475,Ba6Lu3Sc(TeO9)2,"['O', 'Sc', 'Te', 'Ba', 'Lu']",30,455.1143,7.0674,3,P3,143,trigonal,-221.6766,-3.1639,-0.1108,intercalated ion,2.6773,True,0.0,,-0.1108,-0.037
124976,Cs5F13,5330f8410c,Cs5F13,"['F', 'Cs']",18,486.4623,3.1114,-4,I-4,82,tetragonal,-63.7693,-1.9135,-0.3343,intercalated ion,,True,-0.0,,-0.3343,-0.0551
124978,O18Rb2U6,5331457f29,RbU3O9,"['O', 'Rb', 'U']",26,473.2874,6.6209,6mm,P6mm,183,hexagonal,-250.7301,-3.5368,-0.0143,intercalated ion,0.0008,True,0.0,,-0.0143,-0.0143
125048,Gd2O14Ta2Tm3Y1,533dab241f,Gd2YTm3Ta2O14,"['O', 'Y', 'Gd', 'Tm', 'Ta']",22,293.6046,8.4615,m,Pm,6,monoclinic,-226.2472,-3.8734,-0.0071,3D,3.0821,True,0.0,,-0.0071,-0.0064
125074,Np4O24Pr3Y5,5341cc7526,Pr3Y5Np4O24,"['O', 'Y', 'Pr', 'Np']",36,518.5443,7.0426,2,P2,3,monoclinic,-350.865,-3.7124,-0.2138,3D,0.4744,False,0.0,,-0.2138,-0.1656
125078,Al6Ca2La2O14,53427f9a07,CaLaAl3O7,"['O', 'Al', 'Ca', 'La']",24,322.1946,3.8337,2,P2_1,4,monoclinic,-191.4341,-3.5752,-0.0082,intercalated ion,4.3591,True,-0.0,,-0.0082,-0.0003
125173,F22Pr1U1Zr4,5351b9560b,PrZr4UF22,"['F', 'Zr', 'Pr', 'U']",28,447.7411,4.3088,222,I222,23,orthorhombic,-205.9123,-4.057,-0.0179,3D,0.0901,False,0.0,,-0.0179,-0.0179
125197,Eu1F12Tb3,53561e03d3,Tb3EuF12,"['F', 'Eu', 'Tb']",16,200.4825,7.096,m,Pm,6,monoclinic,-116.6446,-4.3445,-0.0428,3D,0.0805,True,0.0,,-0.0428,-0.0202
125199,Ho30O2Si18,53568d6495,Ho15Si9O,"['O', 'Si', 'Ho']",50,1142.9557,7.9695,6mm,P6_3mc,186,hexagonal,-291.1674,-0.9229,-0.0239,3D,,True,0.0,,-0.0239,-0.0228
125205,F12Pb1Sb2,53578429ae,Sb2PbF12,"['F', 'Sb', 'Pb']",15,274.9327,4.0992,1,P1,1,triclinic,-75.0933,-2.679,-0.0281,2D,4.5107,True,0.0,,-0.0281,-0.0271
125226,Cs2O24Pu6Se4,535b51dcb6,CsPu3(SeO6)2,"['O', 'Se', 'Cs', 'Pu']",36,738.2603,5.4649,6,P6_3,173,hexagonal,-313.4155,-2.5912,-0.1159,intercalated ion,0.0066,True,0.0,,-0.1159,-0.0951
125240,O18Tc4V2,535e461a9d,VTc2O9,"['O', 'V', 'Tc']",24,401.9244,3.2303,mm2,Cmc2_1,36,orthorhombic,-196.3929,-1.9883,-0.018,2D,,True,0.0,,-0.018,-0.018
125345,As4Cl26Os2,53714607c5,As2OsCl13,"['Cl', 'As', 'Os']",32,1070.5577,2.4847,mm2,Cmc2_1,36,orthorhombic,-121.4357,-1.0088,-0.0533,0D,0.5204,False,0.0,,-0.0533,-0.0378
125409,Cl18Cs1Nb6Tm1,537c1aa73b,CsTm(NbCl3)6,"['Cl', 'Nb', 'Cs', 'Tm']",26,699.8796,3.5528,3,R3,146,trigonal,-149.1159,-1.9178,-0.0151,intercalated ion,1.0828,True,-0.0,,-0.0151,-0.0126
125424,Lu1O18Pr3Se6,537e8355a1,Pr3Lu(SeO3)6,"['O', 'Se', 'Pr', 'Lu']",28,474.4126,4.7583,1,P1,1,triclinic,-193.776,-2.3169,-0.0453,3D,,False,0.0,,-0.0453,-0.0417
125425,Br18Cs6In3V1,537e848a7c,Cs6V(InBr6)3,"['V', 'Br', 'In', 'Cs']",28,1097.5593,3.9807,3m,P3m1,156,trigonal,-98.5045,-1.6546,-0.0725,intercalated ion,inf,True,0.0,,-0.0725,-0.0525
125457,F8Na2O4Tc2,5384616c0a,NaTc(OF2)2,"['O', 'F', 'Na', 'Tc']",16,297.3078,2.5578,-42m,P-42_1m,113,tetragonal,-96.907,-2.403,-0.0465,intercalated ion,2.3977,True,0.0,,-0.0465,-0.0452
125490,O13Os3Pb4Y1,538a5c8786,YOs3Pb4O13,"['O', 'Y', 'Os', 'Pb']",21,295.9684,9.5176,3m,R3m,160,trigonal,-157.4908,-1.8175,-0.0761,3D,,True,-0.0,,-0.0761,-0.0038
125531,Ce1Li2O24P8Tb1,53921e7d83,Li2TbCe(PO3)8,"['Li', 'O', 'P', 'Ce', 'Tb']",36,473.686,3.3117,2,C2,5,monoclinic,-281.6624,-2.9228,-0.0077,intercalated ion,0.1562,True,0.0,,-0.0077,-0.0006
125535,Ho3Np4O24Y5,53927978e9,Y5Ho3Np4O24,"['O', 'Y', 'Ho', 'Np']",36,494.514,7.6269,1,P1,1,triclinic,-351.4949,-3.7465,-0.1856,3D,0.4809,True,0.0,,-0.1856,-0.162
125556,Ca2Nb1O18Sr6Ta3,53958d52e1,Sr6Ca2Ta3NbO18,"['O', 'Ca', 'Sr', 'Nb', 'Ta']",30,455.0219,5.5821,1,P1,1,triclinic,-251.4055,-3.4173,-0.0097,intercalated ion,3.7594,True,0.0,,-0.0097,-0.0084
125566,K4Mg2O12Si4,5396ded6d3,K2Mg(SiO3)2,"['O', 'Mg', 'Si', 'K']",22,329.5212,2.5667,222,C222_1,20,orthorhombic,-153.9189,-2.9636,-0.0183,intercalated ion,4.4083,True,0.0,,-0.0183,-0.0183
125611,Ac1Br15H8Th5,539dd6b311,AcTh5H8Br15,"['H', 'Br', 'Ac', 'Th']",29,811.7637,5.3059,4mm,I4mm,107,tetragonal,-141.4548,-1.6748,-0.0097,3D,2.6961,True,0.0,,-0.0097,-0.0096
125624,F28Pr3Sm1Zr4,53a025585f,Pr3SmZr4F28,"['F', 'Zr', 'Pr', 'Sm']",36,616.2147,3.9611,1,P1,1,triclinic,-258.6082,-4.2176,-0.0016,3D,6.0557,True,0.0,,-0.0016,-0.0015
125674,F20Gd3Rb8Sm1,53aa272241,Rb8SmGd3F20,"['F', 'Rb', 'Sm', 'Gd']",32,618.8049,4.5238,m,Pm,6,monoclinic,-211.8073,-3.7102,-0.0437,intercalated ion,,True,0.0,,-0.0437,-0.0127
125693,Bi3Br2In1La5Pb2Pr5,53ad6ae5b6,La5Pr5InBi3(PbBr)2,"['Br', 'In', 'La', 'Pr', 'Pb', 'Bi']",18,570.3777,7.9043,m,Pm,6,monoclinic,-91.3196,-0.9786,-0.0173,3D,,False,0.0,,-0.0173,-0.0144
125763,Gd3O14Sm3W2,53b7420a12,Sm3Gd3(WO7)2,"['O', 'Sm', 'Gd', 'W']",22,311.1683,8.0821,1,P1,1,triclinic,-226.7968,-3.4193,-0.0057,3D,2.2872,True,0.0,,-0.0057,-0.0015
125775,Ba1F12Ru1Sb1,53b93efa76,BaSbRuF12,"['F', 'Ru', 'Sb', 'Ba']",15,266.1304,3.6697,1,P1,1,triclinic,-79.7221,-2.7641,-0.0427,intercalated ion,1.2722,True,0.0,,-0.0427,-0.038
125808,Ba1Cl12Pt2Sr1,53bfacf519,BaSr(PtCl6)2,"['Cl', 'Sr', 'Ba', 'Pt']",16,452.3572,3.8197,2,C2,5,monoclinic,-65.0121,-1.6925,-0.1653,intercalated ion,1.992,False,0.0,,-0.1653,-0.0474
125873,Lu5Np3O18Tm1,53cabc43ba,TmLu5Np3O18,"['O', 'Tm', 'Lu', 'Np']",27,382.2771,8.8734,2,C2,5,monoclinic,-257.3416,-3.7909,-0.1609,3D,0.6459,False,0.0,,-0.1609,-0.1368
125908,Al2Br8I6Te2,53d1c555a7,AlTeI3Br4,"['Al', 'Br', 'Te', 'I']",18,824.8673,3.442,m,Pc,7,monoclinic,-53.843,-0.9903,-0.0252,0D,,True,0.0,,-0.0252,-0.0228
125950,Bi6Np2O18Ti1,53d9df6c44,Np2Ti(BiO3)6,"['O', 'Ti', 'Bi', 'Np']",27,414.8765,8.2601,32,P321,150,trigonal,-209.8325,-2.357,-0.1095,3D,,True,0.0,,-0.1095,-0.1077
125973,Cl28Mo1U1,53dd12253a,UMoCl28,"['Cl', 'Mo', 'U']",30,1309.5718,1.6822,2,C2,5,monoclinic,-106.2722,-1.0792,-0.3142,0D,0.8047,True,0.0,,-0.3142,-0.3137
125987,Br10Hg8Ho2Te4,53df533ccb,HoHg4Te2Br5,"['Br', 'Te', 'Ho', 'Hg']",24,884.8201,6.088,2,P2_1,4,monoclinic,-67.6745,-1.1307,-0.0266,3D,,True,0.0,,-0.0266,-0.0006
126022,O12Sc2Tb3Y3,53e3713d40,Tb3Y3Sc2O12,"['O', 'Sc', 'Y', 'Tb']",20,290.3878,5.8636,3,R3,146,trigonal,-184.9593,-3.9808,-0.0051,3D,4.4798,True,0.0,,-0.0051,-0.0051
126026,Bi1Cs2O12W3,53e4353e4d,Cs2Bi(WO4)3,"['O', 'Cs', 'W', 'Bi']",18,308.5149,6.5574,2,C2,5,monoclinic,-142.4693,-2.141,-0.0454,intercalated ion,0.0122,True,0.0,,-0.0454,-0.045
126077,F24Lu3Pa3,53ee7ad29a,LuPaF8,"['F', 'Lu', 'Pa']",30,436.9987,6.3609,1,P1,1,triclinic,-216.1645,-4.2727,-2.4914,3D,,True,0.0,,-2.4914,-1.0202
126104,La2O19Pt6Sr2,53f2b1805d,Sr2La2Pt6O19,"['O', 'Sr', 'La', 'Pt']",29,395.2807,8.0974,2,C2,5,monoclinic,-197.0777,-1.841,-0.0911,intercalated ion,0.0016,False,0.0,,-0.0911,-0.0742
126105,Bi1Nb3O24P6,53f34187e4,Nb3Bi(PO4)6,"['O', 'P', 'Nb', 'Bi']",34,516.3286,3.4011,3,R3,146,trigonal,-279.7304,-2.7737,-0.012,3D,,True,0.0,,-0.012,-0.012
126118,Ba4F24In4Na4,53f504d5c6,BaNaInF6,"['F', 'Na', 'In', 'Ba']",36,641.2329,4.0307,222,P2_12_12_1,19,orthorhombic,-190.4127,-3.349,-0.0054,intercalated ion,5.3142,True,0.0,,-0.0054,-0.0052
126119,La5O12Pu2,53f53f6bc4,La5Pu2O12,"['O', 'La', 'Pu']",19,312.6161,7.3011,1,P1,1,triclinic,-184.6184,-3.7909,-0.089,3D,,True,0.0,,-0.089,-0.0209
126129,Gd2O12Sm4W1,53f6ceaebd,Sm4Gd2WO12,"['O', 'Sm', 'Gd', 'W']",19,279.9178,7.6631,1,P1,1,triclinic,-187.6976,-3.5967,-0.0041,3D,3.0997,False,0.0,,-0.0041,-0.0004
126136,Br18Cs6Rh3Sc1,53f8883b27,Cs6Sc(RhBr6)3,"['Sc', 'Br', 'Rh', 'Cs']",28,1035.1918,4.1536,3m,P3m1,156,trigonal,-107.8961,-1.5941,-0.0281,intercalated ion,1.4527,True,0.0,,-0.0281,-0.0281
126154,Ge1O12Rh1Sm5,53fc8d679f,Sm5GeRhO12,"['O', 'Ge', 'Rh', 'Sm']",19,266.9297,6.9633,2,C2,5,monoclinic,-154.3807,-3.1331,-0.0331,3D,,False,0.0,,-0.0331,-0.0313
126170,Ho9O1Si6Y1,54000bfd8f,YHo9Si6O,"['O', 'Si', 'Y', 'Ho']",17,380.7444,7.6662,m,Cm,8,monoclinic,-102.8463,-1.0375,-0.0251,3D,0.0079,True,0.0,,-0.0251,-0.0241
126182,Ba1Ir1O6Pb1,5402e82ab8,BaIrPbO6,"['O', 'Ba', 'Ir', 'Pb']",9,155.7179,6.7474,32,P312,149,trigonal,-59.625,-1.7186,-0.0612,intercalated ion,0.0027,False,-0.0,,-0.0612,-0.0601
126197,Br18Ir3Lu1Rb6,54052fc7b0,Rb6Lu(IrBr6)3,"['Br', 'Rb', 'Lu', 'Ir']",28,987.4157,4.5451,3m,P3m1,156,trigonal,-108.7554,-1.5133,-0.0232,intercalated ion,1.5701,True,0.0,,-0.0232,-0.0118
126228,O14Pr2Ta2Tm2Y2,5409990d39,PrYTmTaO7,"['O', 'Y', 'Pr', 'Tm', 'Ta']",22,303.191,7.5766,mm2,Ama2,40,orthorhombic,-209.0447,-3.846,-0.0207,3D,3.5645,True,0.0,,-0.0207,-0.0148
126422,F14Re2Tm2,542af7aaea,TmReF7,"['F', 'Tm', 'Re']",18,264.5547,6.1277,2,P2_1,4,monoclinic,-120.0773,-3.3042,-0.187,3D,1.5472,True,-0.0,,-0.187,-0.0149
126444,O18Pr3Se6Sm1,542d9a997b,Pr3Sm(SeO3)6,"['O', 'Se', 'Pr', 'Sm']",28,460.9586,4.8085,1,P1,1,triclinic,-193.7107,-2.3075,-0.0101,3D,3.9352,False,0.0,,-0.0101,-0.0065
126490,Ir1O16Sr4Te2W1,54364f68e6,Sr4Te2IrWO16,"['O', 'Sr', 'Te', 'W', 'Ir']",24,380.447,5.4023,2,P2,3,monoclinic,-169.7197,-2.3213,-0.0449,intercalated ion,0.2859,True,0.0,,-0.0449,-0.0326
126491,Bi1F28Pr3Re4,5436698966,Pr3Re4BiF28,"['F', 'Pr', 'Re', 'Bi']",36,586.1611,5.4066,1,P1,1,triclinic,-233.2298,-3.1027,-0.0384,3D,1.5982,False,0.0,,-0.0384,-0.0339
126493,Li12O48Pr4Te8Tm8,5436969de8,Li3PrTm2(TeO6)2,"['Li', 'O', 'Te', 'Pr', 'Tm']",80,965.1697,6.5157,2,C2,5,monoclinic,-561.4885,-2.7625,-0.0273,intercalated ion,,True,0.0,,-0.0273,-0.0233
126495,O14Sb3Ta1Th2,5436d62d64,Th2TaSb3O14,"['O', 'Sb', 'Ta', 'Th']",20,259.6648,7.8932,m,Cm,8,monoclinic,-164.8421,-2.8249,-0.0121,3D,1.8044,True,0.0,,-0.0121,-0.0121
126517,Ca1O22Pu1Ta8,543af6a1c6,CaPuTa8O22,"['O', 'Ca', 'Ta', 'Pu']",32,428.178,8.0807,32,P312,149,trigonal,-328.5682,-3.393,-0.0187,intercalated ion,,True,0.0,,-0.0187,-0.0089
126520,Bi3F28La1Zr4,543b35535d,LaZr4Bi3F28,"['F', 'Zr', 'La', 'Bi']",36,615.7562,4.4839,1,P1,1,triclinic,-236.4903,-3.6714,-0.0084,3D,5.4172,True,0.0,,-0.0084,-0.0084
126559,Br20Pr1Rb8Tb3,5441edeafd,Rb8Tb3PrBr20,"['Br', 'Rb', 'Pr', 'Tb']",32,1159.8563,4.1512,m,Pm,6,monoclinic,-129.711,-2.2014,-0.0404,intercalated ion,3.9894,True,0.0,,-0.0404,-0.0172
126602,Nb2O24P6Ta1Tc1,5449a5d1e1,TaNb2Tc(PO4)6,"['O', 'P', 'Nb', 'Tc', 'Ta']",34,501.676,3.4245,1,P1,1,triclinic,-288.0262,-2.7757,-0.0422,3D,,True,0.0,,-0.0422,-0.0422
126646,Bi1F28Rh4Y3,54506c4871,Y3BiRh4F28,"['F', 'Y', 'Rh', 'Bi']",36,530.6093,4.4416,1,P1,1,triclinic,-206.7518,-2.7912,-0.0378,3D,0.0016,True,0.0,,-0.0378,-0.035
126669,F24Pa5Tm1,54534775c3,TmPa5F24,"['F', 'Tm', 'Pa']",30,472.1274,6.2608,1,P1,1,triclinic,-224.2797,-4.2118,-3.6621,3D,,False,-0.0,,-3.6621,-1.198
126673,Bi10O10Pr17Sr1,5453a57c48,SrPr17(BiO)10,"['O', 'Sr', 'Pr', 'Bi']",38,1035.213,7.5918,4,P4,75,tetragonal,-253.9001,-2.1725,-0.02,intercalated ion,0.0256,True,0.0,,-0.02,-0.0192
126709,F28Ir3La4Os1,545b89d499,La4Ir3OsF28,"['F', 'La', 'Os', 'Ir']",36,597.0328,5.1578,1,P1,1,triclinic,-220.6135,-3.0446,-0.0487,3D,,False,0.0,,-0.0487,-0.0485
126719,Br12Pr1S2Tb7,545d31f87a,Tb7Pr(SBr6)2,"['S', 'Br', 'Pr', 'Tb']",22,731.9633,5.1642,m,Pm,6,monoclinic,-112.063,-2.133,-0.0691,3D,0.0049,True,0.0,,-0.0691,-0.0069
126730,F12Pb2Pd2Sr2,545f4f3ada,SrPdPbF6,"['F', 'Sr', 'Pd', 'Pb']",18,298.945,5.7239,mm2,Aea2,41,orthorhombic,-94.6274,-2.807,-0.0007,intercalated ion,1.4231,False,0.0,,-0.0007,-0.0007