Unnamed: 0,Composition,MaterialId,Reduced Formula,Elements,NSites,Volume,Density,Point Group,Space Group,Space Group Number,Crystal System,Corrected Energy,Formation Energy Per Atom,Decomposition Energy Per Atom,Dimensionality Cheon,Bandgap,Is Train,Decomposition Energy Per Atom All,Decomposition Energy Per Atom Relative,Decomposition Energy Per Atom MP,Decomposition Energy Per Atom MP OQMD
14521,Na4O6Sr1Te1,09bb1767c4,Na4SrTeO6,"['O', 'Na', 'Sr', 'Te']",12,169.0529,3.9602,2,C2,5,monoclinic,-64.9469,-2.0947,-0.0138,intercalated ion,2.0765,False,0.0,,-0.0138,-0.0132
14539,Br12Pt1Ru3Sm12,09bf733c76,Sm12Ru3PtBr12,"['Br', 'Ru', 'Sm', 'Pt']",28,853.22,6.3475,32,R32,155,trigonal,-152.4274,-1.5095,-0.0169,3D,0.0035,True,0.0,,-0.0169,-0.0169
14572,Ba2Li12O48Pr10Te8,09c5b3b32d,BaLi6Pr5(TeO6)4,"['Li', 'O', 'Te', 'Ba', 'Pr']",80,1067.3369,5.532,2,C2,5,monoclinic,-546.1972,-2.6124,-0.0136,intercalated ion,,False,0.0,,-0.0136,-0.0087
14675,F28Ge1Rh3Tm4,09dad1cff7,Tm4GeRh3F28,"['F', 'Ge', 'Rh', 'Tm']",36,499.1696,5.2861,1,P1,1,triclinic,-210.7489,-3.1309,-0.1956,3D,,True,0.0,,-0.1956,-0.026
14682,Ho1O14Sm2Ta2Tb3,09dc4eb2a2,Tb3Sm2HoTa2O14,"['O', 'Sm', 'Tb', 'Ho', 'Ta']",22,305.3138,8.3122,1,P1,1,triclinic,-205.5168,-3.8458,-0.006,3D,3.5145,True,0.0,,-0.006,-0.0053
14685,Br18Cs1Hf4Rb1,09dcf54385,CsRbHf4Br18,"['Br', 'Rb', 'Cs', 'Hf']",24,952.5956,4.1324,2,P2,3,monoclinic,-117.2594,-1.9204,-0.0007,intercalated ion,3.1093,False,-0.0,,-0.0007,-0.0002
14690,Br4Cd2Cl4Rb4,09dd91bc2b,Rb2Cd(BrCl)2,"['Cl', 'Br', 'Rb', 'Cd']",14,536.5257,3.182,mm2,Ama2,40,orthorhombic,-45.4421,-1.838,-0.0087,intercalated ion,3.6354,True,0.0,,-0.0087,-0.0067
14711,Au4Br24Sm3Tb1,09e149cadf,TbSm3(AuBr6)4,"['Br', 'Sm', 'Tb', 'Au']",32,1160.3691,4.7447,1,P1,1,triclinic,-117.4071,-1.4448,-0.023,3D,1.1427,True,0.0,,-0.023,-0.0153
14715,Ir3O13Rh1Sr1Tl3,09e26cab40,SrTl3Ir3RhO13,"['O', 'Sr', 'Rh', 'Ir', 'Tl']",21,276.9621,9.5228,3m,R3m,160,trigonal,-137.4964,-1.4533,-0.064,intercalated ion,,True,0.0,,-0.064,-0.0188
14732,Bi2Cl2La10Sn4,09e59e6277,La5Sn2BiCl,"['Cl', 'Sn', 'La', 'Bi']",18,558.6829,6.993,mm2,Ama2,40,orthorhombic,-97.5288,-1.1474,-0.0218,3D,inf,True,0.0,,-0.0218,-0.0218
14750,F28Pt2Tm4V2,09e7fa7e13,Tm2VPtF14,"['F', 'V', 'Tm', 'Pt']",36,501.6371,5.6266,2,P2_1,4,monoclinic,-220.9503,-3.3116,-0.2076,3D,2.0109,True,0.0,,-0.2076,-0.04
14792,Be1Br2Ga1Tb2,09eed48be5,Tb2BeGaBr2,"['Be', 'Ga', 'Br', 'Tb']",6,156.423,5.9065,3m,P3m1,156,trigonal,-27.0509,-1.2901,-0.0391,intercalated ion,0.003,True,0.0,,-0.0391,-0.0106
14809,Cl1P5Sr8,09f237d06f,Sr8P5Cl,"['P', 'Cl', 'Sr']",14,403.6497,3.6666,-4,I-4,82,tetragonal,-60.3601,-1.2807,-0.0407,intercalated ion,1.4581,True,0.0,,-0.0407,-0.015
14818,Bi1F28Tm3Zr4,09f44f4d75,Tm3Zr4BiF28,"['F', 'Zr', 'Tm', 'Bi']",36,567.0156,4.7227,1,P1,1,triclinic,-250.8966,-4.0519,-0.006,3D,5.6781,True,0.0,,-0.006,-0.0058
14841,Cl20Cs8Ho1Lu3,09f97cd224,Cs8HoLu3Cl20,"['Cl', 'Cs', 'Ho', 'Lu']",32,1118.5627,3.6551,m,Pm,6,monoclinic,-144.7329,-2.5767,-0.0486,intercalated ion,,True,0.0,,-0.0486,-0.0079
14988,F28Pd3Pt1Tb3Tl1,0a1000964c,Tb3TlPd3PtF28,"['F', 'Pd', 'Tb', 'Pt', 'Tl']",36,520.615,5.5099,1,P1,1,triclinic,-185.3683,-2.6103,-0.0289,3D,0.8854,True,0.0,,-0.0289,-0.0264
15010,F12H7Pt1,0a131a2a6d,H7PtF12,"['H', 'F', 'Pt']",20,237.9745,3.0013,2,C2,5,monoclinic,-87.0886,-1.7165,-0.0782,0D,0.201,True,0.0,,-0.0782,-0.0615
15102,Ba8O18Sb1Ta3,0a23445bf3,Ba8Ta3SbO18,"['O', 'Sb', 'Ba', 'Ta']",30,551.6476,6.1744,3,P3,143,trigonal,-239.8353,-3.1906,-0.0071,intercalated ion,3.6042,True,0.0,,-0.0071,-0.0058
15151,F30Hf5Lu2Tc1,0a29df01f3,Lu2Hf5TcF30,"['F', 'Tc', 'Lu', 'Hf']",38,491.8619,6.4493,2,C2,5,monoclinic,-278.642,-4.0029,-0.0198,3D,,True,0.0,,-0.0198,-0.0198
15156,Ir3Lu6O18,0a2a7aecea,Lu2IrO6,"['O', 'Lu', 'Ir']",27,354.5714,8.9658,32,P321,150,trigonal,-217.8876,-2.7846,-0.0562,3D,,True,-0.0,,-0.0562,-0.0236
15168,Ag4F24Ga4Sr4,0a2c6f4b5d,SrGaAgF6,"['F', 'Ga', 'Sr', 'Ag']",36,572.8618,4.3967,222,P2_12_12_1,19,orthorhombic,-184.6094,-3.0148,-0.021,intercalated ion,2.5467,True,0.0,,-0.021,-0.0203
15176,Cl2In3Sn3Tb10,0a2d7c8a88,Tb10In3Sn3Cl2,"['Cl', 'In', 'Sn', 'Tb']",18,485.6434,8.072,mm2,Amm2,38,orthorhombic,-86.9348,-0.9228,-0.0436,3D,0.0094,False,0.0,,-0.0436,-0.0296
15188,Bi3La3Lu2O14,0a2fa6f94d,La3Lu2Bi3O14,"['O', 'La', 'Lu', 'Bi']",22,335.6729,8.002,1,P1,1,triclinic,-169.6242,-2.9469,-0.0622,3D,1.4947,True,0.0,,-0.0622,-0.0444
15195,Cl3H3Si1,0a303d5387,Si(HCl)3,"['H', 'Si', 'Cl']",7,207.2858,1.1012,1,P1,1,triclinic,-28.2735,-1.0178,-0.0361,0D,6.2192,True,0.0,,-0.0361,-0.0357
15203,Au2Br3Cs2I3,0a31f9ed12,Cs2Au2(IBr)3,"['Br', 'I', 'Cs', 'Au']",10,412.8443,5.1491,mm2,Fmm2,42,orthorhombic,-28.7073,-1.0886,-0.0034,intercalated ion,0.348,True,0.0,,-0.0034,-0.002
15215,O13Os3Pb4Pd1,0a34924545,Os3PdPb4O13,"['O', 'Pd', 'Os', 'Pb']",21,287.4889,9.8995,3m,R3m,160,trigonal,-148.7115,-1.4607,-0.0635,3D,0.0034,True,0.0,,-0.0635,-0.0061
15247,Mo2O12Sc2U2,0a3a237039,ScUMoO6,"['O', 'Sc', 'Mo', 'U']",18,239.6485,6.5815,4mm,P4_2nm,102,tetragonal,-175.0312,-3.262,-0.0311,3D,0.8666,True,0.0,,-0.0311,-0.0218
15255,Cu4Na1O8Pr1,0a3b6fe41c,NaPr(CuO2)4,"['O', 'Na', 'Cu', 'Pr']",14,164.0533,5.5274,-4,I-4,82,tetragonal,-84.381,-1.5926,-0.0517,intercalated ion,0.7023,True,0.0,,-0.0517,-0.0511
15277,B2La1O18Pr5W2,0a3f55e0ef,LaPr5B2(WO9)2,"['B', 'O', 'La', 'Pr', 'W']",28,384.3045,6.5709,1,P1,1,triclinic,-250.3434,-3.3273,-0.0282,3D,3.7998,True,0.0,,-0.0282,0.0
15291,Cl12Pr12Pt3Rh1,0a4164f5f1,Pr12Pt3RhCl12,"['Cl', 'Rh', 'Pr', 'Pt']",28,856.7676,5.4355,32,R32,155,trigonal,-158.3929,-1.9022,-0.0182,3D,0.0081,True,-0.0,,-0.0182,-0.0178
15398,F20Np4Rb8,0a51de8a47,Rb2NpF5,"['F', 'Rb', 'Np']",32,635.9218,5.253,mm2,Pna2_1,33,orthorhombic,-206.888,-3.407,-0.0706,intercalated ion,0.107,True,0.0,,-0.0706,-0.027
15407,Bi5Br2In1La6Pr4,0a52d1bdd1,La6Pr4InBi5Br2,"['Br', 'In', 'La', 'Pr', 'Bi']",18,566.3665,7.9648,mm2,Amm2,38,orthorhombic,-93.2611,-1.0581,-0.0059,3D,,True,0.0,,-0.0059,-0.0058
15447,F20Ho5Rb2Y1,0a598b6974,Rb2YHo5F20,"['F', 'Rb', 'Y', 'Ho']",28,398.3653,6.1044,4mm,I4mm,107,tetragonal,-189.7677,-4.2928,-0.0534,intercalated ion,7.1444,True,0.0,,-0.0534,-0.0075
15471,Ag1Cu4Ho1O8,0a5d8ce544,HoCu4AgO8,"['O', 'Cu', 'Ag', 'Ho']",14,156.6971,6.9409,-4,I-4,82,tetragonal,-83.393,-1.4284,-0.0178,3D,0.2135,True,0.0,,-0.0178,-0.0156
15475,Au4La1Li1O8,0a5e95f256,LiLa(AuO2)4,"['Li', 'O', 'La', 'Au']",14,193.4292,9.1145,-4,I-4,82,tetragonal,-78.5791,-1.3609,-0.0168,intercalated ion,,True,0.0,,-0.0168,-0.0141
15493,Ac1F28Ho3Ru4,0a60fe938a,AcHo3Ru4F28,"['F', 'Ru', 'Ho', 'Ac']",36,533.3729,5.1619,1,P1,1,triclinic,-220.9721,-3.1246,-0.0431,3D,,True,0.0,,-0.0431,-0.0253
15506,La3O19Pr1Pt6,0a630bc9a7,La3PrPt6O19,"['O', 'La', 'Pr', 'Pt']",29,382.0978,8.8313,3,R3,146,trigonal,-208.4723,-2.0154,-0.0394,3D,0.0005,True,0.0,,-0.0394,-0.0378
15588,Ba4Cu4F20,0a70a4bc75,BaCuF5,"['F', 'Cu', 'Ba']",28,405.7794,4.843,222,P2_12_12_1,19,orthorhombic,-141.1588,-2.8163,-0.2136,intercalated ion,0.2523,True,0.0,,-0.2136,-0.0344
15651,Al3F18Na3V3,0a7bd75cb3,NaAlVF6,"['F', 'Na', 'Al', 'V']",27,342.0324,3.13,32,P321,150,trigonal,-168.9941,-3.4123,-0.0026,intercalated ion,3.1036,False,0.0,,-0.0026,-0.0018
15661,Ho1Nb6O48P12Sb1,0a7deb54b0,HoNb6Sb(PO4)12,"['O', 'P', 'Nb', 'Sb', 'Ho']",68,1004.8146,3.2784,1,P1,1,triclinic,-566.9406,-2.87,-0.0083,3D,,False,0.0,,-0.0083,-0.008
15733,Ge1O2Si1Ti6,0a8a734379,Ti6SiGeO2,"['O', 'Si', 'Ti', 'Ge']",10,133.394,5.2274,mm2,Amm2,38,orthorhombic,-83.1552,-1.5838,-0.0173,3D,0.0006,True,0.0,,-0.0173,-0.0172
15768,Gd8O24Os3Te1,0a91305351,Gd8Te(OsO8)3,"['O', 'Te', 'Gd', 'Os']",36,497.918,7.8047,1,P1,1,triclinic,-372.3791,-2.8943,-0.0164,3D,,True,0.0,,-0.0164,-0.0092
15775,Ba7Nb1O18Sb3Sr1,0a91fe7be7,Ba7SrNb(SbO6)3,"['O', 'Sr', 'Nb', 'Sb', 'Ba']",30,534.366,5.5782,3,P3,143,trigonal,-211.9136,-2.8413,-0.0104,intercalated ion,3.2986,False,0.0,,-0.0104,-0.0104
15799,Eu1O24Pr7W4,0a9521e028,Pr7Eu(WO6)4,"['O', 'Pr', 'Eu', 'W']",36,537.5023,6.9747,1,P1,1,triclinic,-328.7509,-3.178,-0.0381,3D,,True,0.0,,-0.0381,-0.0296
15811,O12Re1Tm5V1,0a969dcef1,Tm5VReO12,"['O', 'V', 'Tm', 'Re']",19,242.562,8.7203,2,C2,5,monoclinic,-169.5888,-3.4898,-0.003,3D,0.6496,True,0.0,,-0.003,-0.003
15820,Br1F6H7,0a982b26d2,H7BrF6,"['H', 'F', 'Br']",14,184.638,1.8072,1,P1,1,triclinic,-59.1318,-1.5912,-0.0641,0D,4.6083,True,0.0,,-0.0641,-0.0437
15855,Eu1La3O14Ta2Tb2,0a9f01c44c,La3Tb2EuTa2O14,"['O', 'La', 'Eu', 'Tb', 'Ta']",22,320.8072,7.6214,1,P1,1,triclinic,-210.849,-3.7951,-0.0442,3D,0.0045,False,0.0,,-0.0442,-0.0334
15918,Cd1Np1O12Tb5,0aa892b5e3,Tb5NpCdO12,"['O', 'Cd', 'Tb', 'Np']",19,277.642,7.9906,1,P1,1,triclinic,-163.738,-3.5432,-0.1429,3D,0.6869,True,0.0,,-0.1429,-0.1036
15951,Ir3O24Tb5W1Y3,0aad8b0542,Tb5Y3Ir3WO24,"['O', 'Y', 'Tb', 'W', 'Ir']",36,485.6132,7.5427,1,P1,1,triclinic,-304.415,-2.8783,-0.0622,3D,0.2471,True,0.0,,-0.0622,-0.0378
16019,Br18Cs6Np3Pr1,0ab915de3d,Cs6Pr(NpBr6)3,"['Br', 'Cs', 'Pr', 'Np']",28,1182.0519,4.3375,3,R3,146,trigonal,-135.1987,-2.0263,-0.0421,intercalated ion,0.0237,True,0.0,,-0.0421,-0.0381
16068,Br12Na1Rh1Sm1Tb5,0ac13267ca,NaTb5SmRhBr12,"['Na', 'Br', 'Rh', 'Sm', 'Tb']",20,675.3099,4.991,1,P1,1,triclinic,-95.9901,-1.9885,-0.0074,intercalated ion,,True,0.0,,-0.0074,-0.0073
16142,Bi5Eu1F30Y2,0ace70e29d,EuY2Bi5F30,"['F', 'Y', 'Eu', 'Bi']",38,604.8264,5.3389,1,P1,1,triclinic,-211.8841,-2.9438,-0.0176,3D,,True,0.0,,-0.0176,-0.008
16200,O13Pb1Pt1Ru3Tl3,0ad8a47bae,Tl3Ru3PtPbO13,"['O', 'Ru', 'Pt', 'Tl', 'Pb']",21,278.4072,9.1055,3m,R3m,160,trigonal,-136.8544,-1.3257,-0.0162,3D,0.0048,True,0.0,,-0.0162,-0.011
16224,Br9Cl9U3,0adbbe7a9b,U(BrCl)3,"['Cl', 'Br', 'U']",21,865.7668,3.3609,3m,P3m1,156,trigonal,-103.266,-1.8106,-0.0695,0D,0.8512,False,0.0,,-0.0695,-0.0694
16227,Ga4Ge2O14Sr4,0adbe09fe0,Sr2Ga2GeO7,"['O', 'Ga', 'Ge', 'Sr']",24,363.061,4.5675,2,P2_1,4,monoclinic,-162.1742,-2.6994,-0.0159,intercalated ion,2.9406,True,0.0,,-0.0159,-0.0159
16263,Bi1Ce1Gd5O12,0ae252f2d9,CeGd5BiO12,"['O', 'Ce', 'Gd', 'Bi']",19,278.3311,7.919,1,P1,1,triclinic,-205.825,-3.4813,-0.0725,3D,,True,0.0,,-0.0725,-0.063
16264,Br18C1Hf1In4Zr5,0ae25b05c4,HfZr5In4CBr18,"['C', 'Br', 'Zr', 'In', 'Hf']",29,933.3447,4.5264,1,P1,1,triclinic,-147.6487,-1.5605,-0.0531,1D,,True,0.0,,-0.0531,-0.0423
16285,Ce1Gd1O2Sb1,0ae50f6105,CeGdSbO2,"['O', 'Sb', 'Ce', 'Gd']",5,98.919,7.573,4mm,I4mm,107,tetragonal,-49.0266,-2.9944,-0.0557,3D,,True,0.0,,-0.0557,-0.0152
16295,Ba8Nb3O18Ta1,0ae5f345f9,Ba8TaNb3O18,"['O', 'Nb', 'Ba', 'Ta']",30,553.1672,5.5423,3,P3,143,trigonal,-244.3414,-3.2588,-0.0004,intercalated ion,3.5362,True,0.0,,-0.0004,-0.0
16305,F3S24Y1,0ae7bda1e5,Y(S8F)3,"['F', 'S', 'Y']",28,950.8762,1.5987,3m,R3m,160,trigonal,-137.9649,-0.946,-0.3135,0D,2.6981,True,0.0,,-0.3135,-0.3135
16315,La10O24Se3,0ae8edb486,La10(SeO8)3,"['O', 'Se', 'La']",37,595.2938,5.6066,2,C2,5,monoclinic,-291.8596,-3.0611,-0.0805,3D,,True,0.0,,-0.0805,-0.0711
16355,As2O2Rh1Ru1Y2,0aeee32e17,Y2As2RuRhO2,"['O', 'As', 'Y', 'Ru', 'Rh']",8,133.4478,7.0134,-42m,P-4m2,115,tetragonal,-65.5881,-2.1003,-0.0326,3D,,True,0.0,,-0.0326,-0.022
16376,Ba2In4O23P6,0af276a8ae,Ba2In4P6O23,"['O', 'P', 'In', 'Ba']",35,474.3325,4.5082,1,P1,1,triclinic,-256.0305,-2.7115,-0.0019,intercalated ion,3.4145,True,0.0,,-0.0019,-0.0019
16384,Eu10O1Sb2Si4,0af3d66e96,Eu10Si4Sb2O,"['O', 'Si', 'Sb', 'Eu']",17,482.0647,6.5155,-42m,I-42m,121,tetragonal,-155.4467,-1.0364,-0.0484,3D,0.0016,True,0.0,,-0.0484,-0.0084
16413,F28Tb4Tc1Zr3,0afa69484a,Tb4Zr3TcF28,"['F', 'Zr', 'Tc', 'Tb']",36,563.9386,4.5326,1,P1,1,triclinic,-252.8453,-4.0217,-0.0263,3D,1.7941,True,0.0,,-0.0263,-0.0249
16433,Cl18Hf2Na6U1,0afd6d84b3,Na6Hf2UCl18,"['Na', 'Cl', 'Hf', 'U']",27,753.584,3.0213,3m,P3m1,156,trigonal,-132.5245,-2.2263,-0.0195,intercalated ion,0.2341,True,0.0,,-0.0195,-0.011
16455,Lu3O2Si6Tm7,0b00ace6de,Tm7Lu3(Si3O)2,"['O', 'Si', 'Tm', 'Lu']",18,358.1132,8.847,32,P312,149,trigonal,-111.7714,-1.3572,-0.0186,3D,0.0034,True,0.0,,-0.0186,-0.0176
16485,Ac5Ca5Cl2Pb6,0b052c8d6e,Ca5Ac5(Pb3Cl)2,"['Cl', 'Ca', 'Pb', 'Ac']",18,597.7233,7.3606,mm2,Amm2,38,orthorhombic,-73.6047,-0.9443,-0.216,intercalated ion,0.0117,False,0.0,,-0.216,-0.0801
16491,Cl6Nb1Tl1,0b05fb4fd9,NbTlCl6,"['Cl', 'Nb', 'Tl']",8,284.8832,2.9728,3m,R3m,160,trigonal,-36.848,-1.6617,-0.0098,intercalated ion,,True,0.0,,-0.0098,-0.0098
16495,As1Ca1F12Sb1,0b069bace9,CaSbAsF12,"['F', 'Ca', 'As', 'Sb']",15,251.372,3.07,1,P1,1,triclinic,-77.3494,-2.9079,-0.0636,intercalated ion,4.818,True,0.0,,-0.0636,-0.0605
16528,Br12Ca1Pu2Rb5,0b0d5c60a9,Rb5CaPu2Br12,"['Ca', 'Br', 'Rb', 'Pu']",20,780.4742,4.0728,mm2,Amm2,38,orthorhombic,-97.1466,-2.103,-0.0574,intercalated ion,0.0206,True,-0.0,,-0.0574,-0.0426
16538,As3Br4Pt4Se1,0b0f33e689,As3Pt4SeBr4,"['As', 'Se', 'Br', 'Pt']",12,310.908,7.4969,mm2,Pmm2,25,orthorhombic,-55.5025,-0.5998,-0.0122,3D,0.007,False,-0.0,,-0.0122,-0.0071
16545,Br35Sb1,0b105142e6,SbBr35,"['Br', 'Sb']",36,1793.7135,2.7017,1,P1,1,triclinic,-81.8993,-0.5688,-0.4472,0D,,True,0.0,,-0.4472,-0.3371
16548,Bi1Br2In5Pr6Y4,0b10b561d0,Pr6Y4In5BiBr2,"['Br', 'Y', 'In', 'Pr', 'Bi']",18,539.2122,6.6024,mm2,Amm2,38,orthorhombic,-89.5351,-0.7812,-0.0201,3D,0.0049,True,0.0,,-0.0201,-0.0189
16555,As4Ca1F24Sr1,0b110e0221,SrCaAs4F24,"['F', 'Ca', 'As', 'Sr']",30,530.9783,2.7625,-4,I-4,82,tetragonal,-153.5595,-2.8451,-0.0737,intercalated ion,5.0234,True,0.0,,-0.0737,-0.0714
16557,F8Na4O32P8Rb4V8,0b127a3c67,RbNaV2P2(O4F)2,"['O', 'F', 'Na', 'P', 'V', 'Rb']",64,887.119,3.2815,mm2,Pna2_1,33,orthorhombic,-478.9351,-2.8144,-0.0196,intercalated ion,,True,0.0,,-0.0196,-0.0102
16609,Ca5La1O12U2,0b1c5d8c4d,Ca5LaU2O12,"['O', 'Ca', 'La', 'U']",20,322.5629,5.1858,1,P1,1,triclinic,-170.2799,-3.6679,-0.0184,intercalated ion,0.5953,False,0.0,,-0.0184,-0.0184
16636,Cl12La12Rh2Tc2,0b205a26df,La6TcRhCl6,"['Cl', 'Tc', 'Rh', 'La']",28,862.8842,4.7997,222,F222,22,orthorhombic,-167.2666,-1.8001,-0.0332,3D,,True,0.0,,-0.0332,-0.0329
16646,La1O6Pd1Sb1,0b2366a8d2,LaSbPdO6,"['O', 'Pd', 'Sb', 'La']",9,127.7985,6.017,32,P312,149,trigonal,-63.7344,-2.2002,-0.057,3D,1.7521,True,0.0,,-0.057,-0.0336
16658,F28Hf1Tb4W3,0b25c4b1de,Tb4HfW3F28,"['F', 'Tb', 'Hf', 'W']",36,551.0039,5.7189,1,P1,1,triclinic,-255.7018,-3.7448,-0.0796,3D,,False,0.0,,-0.0796,-0.0706
16674,As3Ga3O1Ti10,0b29e0eee0,Ti10Ga3As3O,"['O', 'Ti', 'Ga', 'As']",17,256.6751,6.0075,3m,P31m,157,trigonal,-123.9345,-0.9982,-0.0585,3D,0.0041,True,0.0,,-0.0585,-0.0409
16711,F20Ho1In2Y5,0b303fdcdc,Y5HoIn2F20,"['F', 'Y', 'In', 'Ho']",28,403.9623,5.0111,4mm,I4mm,107,tetragonal,-194.7646,-4.0756,-0.0049,intercalated ion,4.7448,True,0.0,,-0.0049,-0.0015
16746,La11Li12Mo8O48Sm1,0b364997b0,Li12La11Sm(MoO6)8,"['Li', 'O', 'Mo', 'La', 'Sm']",80,1054.8119,5.1905,222,F222,22,orthorhombic,-637.7291,-2.8938,-0.0112,intercalated ion,,True,0.0,,-0.0112,-0.0112
16763,F5O1Ti1V1,0b39bd2481,TiVOF5,"['O', 'F', 'Ti', 'V']",8,114.4069,3.0451,1,P1,1,triclinic,-58.9745,-3.4362,-0.016,3D,,True,0.0,,-0.016,-0.016
16817,Ho5O12Sb1Zr1,0b430a3630,Ho5ZrSbO12,"['O', 'Zr', 'Sb', 'Ho']",19,255.0672,8.0051,1,P1,1,triclinic,-164.8736,-3.6794,-0.0143,3D,3.4627,True,0.0,,-0.0143,-0.0122
16963,Bi3In2O12Pb1,0b5dd915a6,In2Bi3PbO12,"['O', 'In', 'Pb', 'Bi']",18,260.7157,7.9982,mm2,Cmm2,35,orthorhombic,-107.742,-1.5267,-0.0248,3D,inf,True,0.0,,-0.0248,-0.0137
16992,F8Na2O4Os2,0b63201b35,NaOs(OF2)2,"['O', 'F', 'Na', 'Os']",16,253.5594,4.2072,m,Cc,9,monoclinic,-95.0497,-2.1791,-0.0545,intercalated ion,0.4198,True,0.0,,-0.0545,-0.0188
16999,As2Eu2F2Rh1Ru1,0b639f7e6b,Eu2As2RuRhF2,"['F', 'As', 'Ru', 'Rh', 'Eu']",8,145.1865,7.9574,-42m,P-4m2,115,tetragonal,-66.9472,-2.0729,-0.0736,3D,0.0197,True,0.0,,-0.0736,-0.063
17026,Ho1O24Tb1Tm6W4,0b67177d82,TbHoTm6(WO6)4,"['O', 'Tb', 'Ho', 'Tm', 'W']",36,450.3429,9.0589,2,P2,3,monoclinic,-326.9258,-3.3408,-0.0051,3D,3.6551,True,0.0,,-0.0051,-0.0049
17038,Cl6Mo1Pb1,0b6a5a7fbf,MoPbCl6,"['Cl', 'Mo', 'Pb']",8,257.24,3.33,3,R3,146,trigonal,-37.0546,-1.4256,-0.0188,2D,0.0951,True,0.0,,-0.0188,-0.0053
17069,O8Ta1Ti3,0b6fae6088,TaTi3O8,"['O', 'Ti', 'Ta']",12,146.1888,5.1404,-42m,P-4m2,115,tetragonal,-116.2042,-3.423,-0.0097,3D,0.0053,True,0.0,,-0.0097,-0.0095
17112,Br12Ge4La6Sm6,0b76811013,La3Sm3(GeBr3)2,"['Ge', 'Br', 'La', 'Sm']",28,895.1298,5.5374,2,C2,5,monoclinic,-143.7592,-1.7034,-0.0241,3D,inf,True,-0.0,,-0.0241,-0.0172
17354,F28Ga1Ru3Sm4,0ba2837361,Sm4GaRu3F28,"['F', 'Ga', 'Ru', 'Sm']",36,548.0739,4.5638,1,P1,1,triclinic,-218.7406,-3.2082,-0.0186,3D,0.003,True,0.0,,-0.0186,-0.0162
17360,Cl3Gd1S24,0ba3ba0f0f,Gd(S8Cl)3,"['S', 'Cl', 'Gd']",28,801.9924,2.1392,3m,R3m,160,trigonal,-140.6856,-0.7782,-0.3923,0D,,True,0.0,,-0.3923,-0.3869
17379,Be1Br2Ga1Zr2,0ba6b79253,Zr2BeGaBr2,"['Be', 'Ga', 'Br', 'Zr']",6,133.0751,5.2532,3m,P3m1,156,trigonal,-33.779,-1.107,-0.045,intercalated ion,0.0138,True,0.0,,-0.045,-0.0336
17412,Ba4F2O24Pr6Si6,0bab8f1d42,Ba2Pr3Si3O12F,"['O', 'F', 'Si', 'Ba', 'Pr']",42,637.9678,5.1673,6,P6_3,173,hexagonal,-344.0148,-3.6316,-0.03,intercalated ion,4.8322,True,0.0,,-0.03,-0.0087
17467,Ca1Cl12Pu2Sr1,0bb38a6265,SrCaPu2Cl12,"['Cl', 'Ca', 'Sr', 'Pu']",16,508.8164,3.3978,32,P312,149,trigonal,-93.092,-2.4174,-0.154,intercalated ion,,True,0.0,,-0.154,-0.001
17498,La1O12Sr3Ti4,0bb88ef352,Sr3LaTi4O12,"['O', 'Ti', 'Sr', 'La']",20,245.9066,5.3024,m,Pm,6,monoclinic,-172.9778,-3.6008,-0.0197,intercalated ion,0.0027,True,0.0,,-0.0197,-0.0054
17521,Br8S32Ti2,0bbc34fb99,Ti(S4Br)4,"['S', 'Ti', 'Br']",42,1608.9103,1.8176,mm2,Fdd2,43,orthorhombic,-193.9153,-0.7777,-0.3825,0D,,False,0.0,,-0.3825,-0.3401
17553,As1Hg12O20V3,0bc15513e8,V3Hg12AsO20,"['O', 'V', 'As', 'Hg']",36,616.7786,7.9552,1,P1,1,triclinic,-179.0235,-1.2364,-0.0004,3D,1.3981,True,-0.0,,-0.0004,-0.0004
17587,Ac1Bi3O8Pr7,0bc81c196a,AcPr7Bi3O8,"['O', 'Pr', 'Bi', 'Ac']",19,430.3605,7.5946,m,Cm,8,monoclinic,-144.4143,-2.9249,-0.0134,3D,,True,0.0,,-0.0134,-0.0091
17666,Hg7O4Pr4Tl1,0bd4743dc0,Pr4TlHg7O4,"['O', 'Pr', 'Hg', 'Tl']",16,376.7649,9.8555,1,P1,1,triclinic,-70.8807,-1.7174,-0.0175,3D,,True,0.0,,-0.0175,-0.0165
17703,Ho5Np4O24Y3,0bda41c19f,Y3Ho5Np4O24,"['O', 'Y', 'Ho', 'Np']",36,491.2739,8.1911,2,P2,3,monoclinic,-347.9995,-3.7541,-0.1845,3D,0.4782,True,0.0,,-0.1845,-0.1541
17724,Hf1Nb6O12Ta1,0bde49cb97,HfTaNb6O12,"['O', 'Nb', 'Hf', 'Ta']",20,285.0124,6.4605,3,R3,146,trigonal,-199.7517,-2.8977,-0.029,3D,0.0066,True,0.0,,-0.029,-0.028
17733,F30Pd1Pt1Y2Zr4,0bdf208984,Y2Zr4PdPtF30,"['F', 'Y', 'Zr', 'Pd', 'Pt']",38,513.9826,4.5688,2,C2,5,monoclinic,-247.7028,-3.4733,-0.0056,3D,1.3741,True,0.0,,-0.0056,-0.0055
17813,Ca8Ga1O16V3,0bec6264fc,Ca8V3GaO16,"['O', 'Ca', 'V', 'Ga']",28,423.4506,3.1339,m,Pm,6,monoclinic,-210.7307,-3.0442,-0.0188,intercalated ion,1.1622,True,0.0,,-0.0188,-0.0175
17817,Mg1O24P6Pb2V5,0bed0c0b05,MgV5P6(PbO12)2,"['O', 'Mg', 'P', 'V', 'Pb']",38,484.4028,4.3304,2,C2,5,monoclinic,-305.9367,-2.6384,-0.0227,intercalated ion,0.6722,True,0.0,,-0.0227,-0.0223
17838,Cl1F6H7,0bf0187316,H7ClF6,"['H', 'F', 'Cl']",14,164.5463,1.5793,1,P1,1,triclinic,-59.929,-1.633,-0.0636,0D,4.9336,False,0.0,,-0.0636,-0.0431
17881,Br3Ga1S24,0bf68e7a73,Ga(S8Br)3,"['S', 'Ga', 'Br']",28,1038.3088,1.7256,3m,R3m,160,trigonal,-123.9174,-0.5966,-0.4197,0D,,True,0.0,,-0.4197,-0.4197
17883,Al6Li4O16Sb2,0bf6f29068,Li2Al3SbO8,"['Li', 'O', 'Al', 'Sb']",28,270.4364,4.2316,6mm,P6_3mc,186,hexagonal,-198.3818,-2.8874,-0.0131,intercalated ion,3.4984,True,0.0,,-0.0131,-0.0091
17898,F28Ho3Re4Y1,0bf9225423,YHo3Re4F28,"['F', 'Y', 'Ho', 'Re']",36,532.9133,5.7972,1,P1,1,triclinic,-242.3423,-3.3008,-0.0355,3D,1.6522,True,0.0,,-0.0355,-0.0307
17907,O12Re1Ru1Sm5,0bfbc1b945,Sm5ReRuO12,"['O', 'Ru', 'Sm', 'Re']",19,269.3086,7.5907,2,C2,5,monoclinic,-165.6677,-3.2095,-0.008,3D,0.6203,True,0.0,,-0.008,-0.008
17950,Bi2F28Pt4Sr1Tb1,0c045c894a,SrTbBi2Pt4F28,"['F', 'Sr', 'Tb', 'Pt', 'Bi']",36,565.7434,5.8022,1,P1,1,triclinic,-180.0822,-2.4493,-0.0612,intercalated ion,0.0016,True,0.0,,-0.0612,-0.0331
17981,Ca2Cd4O12Te2,0c09776aad,CaCd2TeO6,"['O', 'Ca', 'Cd', 'Te']",20,287.0186,5.6524,1,P1,1,triclinic,-112.845,-1.974,-0.0257,intercalated ion,1.275,True,0.0,,-0.0257,-0.0196