Unnamed: 0,Composition,MaterialId,Reduced Formula,Elements,NSites,Volume,Density,Point Group,Space Group,Space Group Number,Crystal System,Corrected Energy,Formation Energy Per Atom,Decomposition Energy Per Atom,Dimensionality Cheon,Bandgap,Is Train,Decomposition Energy Per Atom All,Decomposition Energy Per Atom Relative,Decomposition Energy Per Atom MP,Decomposition Energy Per Atom MP OQMD
119675,Bi5Br2In1Pr10,4fa60e36b7,Pr10InBi5Br2,"['Br', 'In', 'Pr', 'Bi']",18,554.5458,8.1706,mm2,Amm2,38,orthorhombic,-91.5385,-1.0141,-0.0095,3D,0.0017,True,0.0,,-0.0095,-0.0093
119691,Ga1O1Si9Sr10,4fa8475546,Sr10GaSi9O,"['O', 'Si', 'Ga', 'Sr']",21,566.8715,3.5582,m,Cm,8,monoclinic,-88.5784,-0.7086,-0.0236,intercalated ion,0.0041,True,0.0,,-0.0236,-0.0196
119703,O14P4U1Y1,4faaf8a6f7,YU(P2O7)2,"['O', 'P', 'Y', 'U']",20,329.6763,3.399,1,P1,1,triclinic,-170.8596,-3.1089,-0.0178,3D,0.7875,True,0.0,,-0.0178,-0.0178
119806,Br2C2La1Y3,4fbf73c02c,LaY3(CBr)2,"['C', 'Br', 'Y', 'La']",8,175.9988,5.5615,3m,P3m1,156,trigonal,-54.8202,-1.0947,-0.0377,3D,,True,0.0,,-0.0377,-0.0079
119870,Cl1Pr18Si15Tb2,4fca7c1ac1,Tb2Pr18Si15Cl,"['Si', 'Cl', 'Pr', 'Tb']",36,953.4321,5.7665,1,P1,1,triclinic,-204.8911,-0.7316,-0.0215,3D,0.0021,True,0.0,,-0.0215,-0.0184
119881,Nb1O20P4U2W1,4fcbee3be8,U2NbP4WO20,"['O', 'P', 'Nb', 'W', 'U']",28,459.269,4.3268,1,P1,1,triclinic,-249.7426,-2.9817,-0.0181,3D,,True,0.0,,-0.0181,-0.0181
119918,Al4Br16K3Rb1,4fd1cfadb5,K3Rb(AlBr4)4,"['Al', 'K', 'Br', 'Rb']",24,933.4419,2.827,1,P1,1,triclinic,-88.1503,-1.7777,-0.0063,intercalated ion,,True,0.0,,-0.0063,-0.005
119934,F2Re5Se8Tc1,4fd4fe683e,Re5Tc(Se4F)2,"['F', 'Se', 'Tc', 'Re']",16,364.2218,7.7447,1,P1,1,triclinic,-120.4846,-1.0069,-0.1078,2D,1.237,True,0.0,,-0.1078,-0.0858
119944,Br1Cl1Gd2Se2,4fd63479e9,Gd2Se2BrCl,"['Cl', 'Se', 'Br', 'Gd']",6,205.8268,4.742,mm2,Pmm2,25,orthorhombic,-52.7008,-2.3452,-0.0204,2D,1.382,True,0.0,,-0.0204,-0.0064
119967,Br6Ga1In1O18,4fd982e96b,InGa(BrO3)6,"['O', 'Ga', 'Br', 'In']",26,426.1726,3.7092,3,P3,143,trigonal,-120.8527,-0.6226,-0.0973,3D,3.6521,True,0.0,,-0.0973,-0.0941
120060,In1La1O18V6,4fe870623a,LaV6InO18,"['O', 'V', 'In', 'La']",26,479.4242,2.9349,1,P1,1,triclinic,-216.1086,-2.4944,-0.0053,3D,,True,0.0,,-0.0053,-0.0053
120086,F7H5Zn1,4feb7d1065,ZnH5F7,"['H', 'F', 'Zn']",13,141.3462,2.39,1,P1,1,triclinic,-57.1496,-1.9651,-0.0605,intercalated molecule,5.8865,True,0.0,,-0.0605,-0.0421
120094,Cl6La5Os2Sm1,4feda4a5c5,La5Sm(OsCl3)2,"['Cl', 'La', 'Sm', 'Os']",14,449.9505,5.3072,m,Pm,6,monoclinic,-87.6696,-1.7661,-0.0595,3D,,True,-0.0,,-0.0595,-0.0594
120207,As2Br18Cs6Rh2,4ffd8911a9,Cs3AsRhBr9,"['As', 'Br', 'Rh', 'Cs']",28,1038.9121,4.1419,6mm,P6_3mc,186,hexagonal,-98.7532,-1.4239,-0.0552,intercalated ion,,False,0.0,,-0.0552,-0.0232
120224,Au4Cl24Pr3Sm1,500164a37e,Pr3Sm(AuCl6)4,"['Cl', 'Pr', 'Sm', 'Au']",32,1003.8706,3.6587,1,P1,1,triclinic,-132.9726,-1.7641,-0.0372,3D,1.6723,True,0.0,,-0.0372,-0.0305
120241,Eu6O18Pd3,5004dba3cb,Eu2PdO6,"['O', 'Pd', 'Eu']",27,398.9084,6.3233,32,P321,150,trigonal,-226.7004,-2.235,-0.2306,3D,0.0005,True,0.0,,-0.2306,-0.1434
120281,Ce1Cl1N2Sm1,500c9df367,CeSmN2Cl,"['N', 'Cl', 'Ce', 'Sm']",5,97.4981,6.0282,3m,P3m1,156,trigonal,-39.1772,-2.0008,-0.1552,2D,,True,0.0,,-0.1552,-0.0319
120293,Br3I16K1,500f507a78,KI16Br3,"['K', 'Br', 'I']",20,1104.3539,3.4723,1,P1,1,triclinic,-41.3479,-0.5471,-0.2728,intercalated ion,,True,0.0,,-0.2728,-0.2068
120399,Ag6C1O11Tb1,502159c6bb,TbAg6CO11,"['C', 'O', 'Ag', 'Tb']",19,258.7828,6.3791,3m,R3m,160,trigonal,-106.858,-1.1355,-0.0367,3D,0.0013,True,0.0,,-0.0367,-0.0366
120479,Cl1Eu4O12S1,502f76f6ab,Eu4SClO12,"['O', 'S', 'Cl', 'Eu']",18,244.5523,5.8895,2,C2,5,monoclinic,-149.8214,-2.4052,-0.0631,3D,0.0007,False,0.0,,-0.0631,-0.0118
120491,Br2La4Os2Si2,50319840c6,La2SiOsBr,"['Si', 'Br', 'La', 'Os']",10,270.8012,7.0644,6mm,P6_3mc,186,hexagonal,-67.645,-1.1322,-0.0566,3D,0.0011,True,-0.0,,-0.0566,-0.0515
120494,As8La8O8Pd2Ru6,503259500d,La4As4PdRu3O4,"['O', 'As', 'Ru', 'Pd', 'La']",32,594.3358,7.4259,222,P-42m,111,tetragonal,-250.1145,-2.1176,-0.0981,3D,,True,0.0,,-0.0981,-0.0184
120501,Br2P1Pr2Rh1,503412998f,Pr2PRhBr2,"['P', 'Br', 'Rh', 'Pr']",6,175.0665,5.4588,3m,P3m1,156,trigonal,-36.1432,-1.755,-0.1011,2D,0.1486,True,0.0,,-0.1011,-0.0435
120532,Br1Cl7,503846608c,BrCl7,"['Cl', 'Br']",8,399.6137,1.3633,1,P1,1,triclinic,-18.8865,-0.5387,-0.4488,0D,2.0652,True,0.0,,-0.4488,-0.1816
120604,Eu6O14Ta1W1,5044e44c05,Eu6TaWO14,"['O', 'Eu', 'Ta', 'W']",22,317.7821,7.841,2,C2,5,monoclinic,-226.9927,-3.2342,-0.1258,3D,0.0028,False,0.0,,-0.1258,-0.0435
120605,F28Lu1Tc4Y3,5044f1dbf4,Y3LuTc4F28,"['F', 'Y', 'Tc', 'Lu']",36,528.0735,4.2943,1,P1,1,triclinic,-239.7118,-3.3563,-0.0939,3D,inf,True,0.0,,-0.0939,-0.0875
120617,Cl2In6Tb7Tm3,5046c7ea58,Tb7Tm3(In3Cl)2,"['Cl', 'In', 'Tb', 'Tm']",18,481.8586,8.1986,32,P312,149,trigonal,-80.0306,-0.7753,-0.0485,3D,0.0066,True,0.0,,-0.0485,-0.0358
120622,F28Lu3Tb1Zr4,50479ad7b0,TbLu3Zr4F28,"['F', 'Zr', 'Tb', 'Lu']",36,549.006,4.781,1,P1,1,triclinic,-258.5276,-4.2394,-0.0052,3D,,True,0.0,,-0.0052,-0.0027
120711,Al1As2O1Si3Zr10,5057ef38b8,Zr10AlSi3As2O,"['O', 'Al', 'Si', 'As', 'Zr']",17,311.9033,6.3318,m,Cm,8,monoclinic,-138.7978,-1.1196,-0.0167,3D,,False,0.0,,-0.0167,-0.0157
120742,Cu4La1O12Tb3,505c576c37,LaTb3(CuO3)4,"['O', 'Cu', 'La', 'Tb']",20,258.8638,6.8115,m,Pm,6,monoclinic,-144.1696,-2.4779,-0.0596,3D,0.9495,True,0.0,,-0.0596,-0.0199
120747,As6Gd1O24Ta3,505cbb49fe,GdTa3(AsO4)6,"['O', 'As', 'Gd', 'Ta']",34,581.7605,4.3774,3,R3,146,trigonal,-277.2794,-2.3795,-0.0018,3D,,False,0.0,,-0.0018,-0.0011
120792,Al13Ga3O64Pb8Si16,5064a68cf4,Al13Ga3Si16(PbO8)8,"['O', 'Al', 'Si', 'Ga', 'Pb']",104,1489.1929,4.1155,1,P1,1,triclinic,-804.7744,-3.0175,-0.0016,3D,4.1874,True,0.0,,-0.0016,-0.0016
120848,Gd2O4Se3Sm2,506e3caf6b,Sm2Gd2Se3O4,"['O', 'Se', 'Sm', 'Gd']",11,211.1596,7.2041,mm2,Amm2,38,orthorhombic,-102.7016,-3.1666,-0.1156,3D,1.0642,True,0.0,,-0.1156,-0.0305
120855,B1Cl3S24,506ea3feca,B(S8Cl)3,"['B', 'S', 'Cl']",28,1020.7079,1.4426,3m,R3m,160,trigonal,-129.3035,-0.6358,-0.431,0D,,True,0.0,,-0.431,-0.431
120877,Mo1Nb1O12Pr5,5071e3d88b,Pr5NbMoO12,"['O', 'Nb', 'Mo', 'Pr']",19,295.6971,6.0951,2,C2,5,monoclinic,-169.2745,-3.4236,-0.0256,3D,1.3992,True,0.0,,-0.0256,-0.0209
120886,Cl4In1O1U1,5073d3c26e,UInCl4O,"['O', 'Cl', 'In', 'U']",7,216.569,3.9155,2,C2,5,monoclinic,-41.9623,-2.2253,-0.0301,intercalated ion,0.5141,True,0.0,,-0.0301,-0.0108
120903,Al5Au3O4Ti12,507755136d,Ti12Al5Au3O4,"['O', 'Al', 'Ti', 'Au']",24,335.9168,6.7437,3,R3,146,trigonal,-175.2855,-1.3416,-0.0813,3D,0.0006,True,0.0,,-0.0813,-0.0649
120979,C3Cl5Gd1Ho5,5083894023,GdHo5C3Cl5,"['C', 'Cl', 'Gd', 'Ho']",14,299.6991,6.6222,m,Cm,8,monoclinic,-96.9465,-1.6454,-0.1754,3D,0.0017,True,0.0,,-0.1754,-0.0132
121018,Cl2I16Re6,5089120190,Re3I8Cl,"['Cl', 'I', 'Re']",24,1015.7192,5.2619,1,P1,1,triclinic,-113.3492,-0.4417,-0.0049,1D,1.0121,True,-0.0,,-0.0049,-0.0027
121019,Bi7O24Tb1Te4,5089267ab6,TbBi7(TeO6)4,"['O', 'Te', 'Tb', 'Bi']",36,532.0913,7.8524,1,P1,1,triclinic,-228.7232,-1.8204,-0.0538,3D,,True,0.0,,-0.0538,-0.051
121036,La1O8Sr3V2,508b23f450,Sr3LaV2O8,"['O', 'V', 'Sr', 'La']",14,194.2516,5.3995,mm2,Amm2,38,orthorhombic,-111.4504,-3.121,-0.0136,intercalated ion,1.0345,True,0.0,,-0.0136,-0.0102
121068,F30Ho2Sn1Zr5,5091266e7b,Ho2Zr5SnF30,"['F', 'Zr', 'Sn', 'Ho']",38,511.3989,4.7882,2,C2,5,monoclinic,-263.7225,-3.9596,-0.018,3D,,True,0.0,,-0.018,-0.0168
121075,Hf1O6Ta8Zr17,50925d86a6,HfZr17Ta8O6,"['O', 'Zr', 'Hf', 'Ta']",32,582.6674,9.3273,mm2,Amm2,38,orthorhombic,-317.1621,-1.167,-0.0094,3D,0.0062,True,0.0,,-0.0094,-0.008
121110,Nb2O24P6Th2,509805a5a6,ThNb(PO4)3,"['O', 'P', 'Nb', 'Th']",34,561.8768,3.6047,1,P1,1,triclinic,-292.9694,-3.1385,-0.0026,3D,,True,0.0,,-0.0026,-0.0026
121161,La4O24Os4Pr4,50a266885e,LaPrOsO6,"['O', 'La', 'Pr', 'Os']",36,536.9115,7.0025,222,P2_12_12_1,19,orthorhombic,-305.439,-2.8586,-0.0164,3D,0.0012,True,0.0,,-0.0164,-0.0162
121189,Ca1O6Te1V1,50a6e31335,CaVTeO6,"['O', 'Ca', 'V', 'Te']",9,119.1542,4.3845,32,P312,149,trigonal,-65.3149,-2.3772,-0.016,intercalated ion,1.4569,True,0.0,,-0.016,-0.016
121212,F6H8S1,50aafeda98,H8SF6,"['H', 'F', 'S']",15,178.3671,1.4348,1,P1,1,triclinic,-64.8848,-1.4758,-0.0564,0D,6.9531,True,0.0,,-0.0564,-0.037
121239,O15Rh4Ru1Sr6,50b0ab6569,Sr6RuRh4O15,"['O', 'Sr', 'Ru', 'Rh']",26,370.2708,5.7332,32,R32,155,trigonal,-180.1703,-2.1955,-0.0124,intercalated ion,0.2126,False,0.0,,-0.0124,-0.0102
121250,F28Hf1Pd3Tb4,50b330714b,Tb4HfPd3F28,"['F', 'Pd', 'Tb', 'Hf']",36,530.7759,5.2102,1,P1,1,triclinic,-213.8906,-3.2315,-0.0367,3D,1.8244,True,0.0,,-0.0367,-0.0363
121257,Be4O14Si2Tb4,50b49d74e5,Tb2Be2SiO7,"['Be', 'O', 'Si', 'Tb']",24,260.7047,6.0631,-42m,P-42_1m,113,tetragonal,-199.581,-3.5818,-0.0236,intercalated ion,5.0895,True,0.0,,-0.0236,-0.0001
121307,Ac2Hg8O4Pr2,50be779348,AcPr(Hg2O)2,"['O', 'Pr', 'Hg', 'Ac']",16,378.332,10.5537,1,P1,1,triclinic,-67.8305,-1.7378,-0.0422,3D,,True,0.0,,-0.0422,-0.0378
121359,Cl2La1Pr5Sn6Th4,50c4cf68b3,LaPr5Th4(Sn3Cl)2,"['Cl', 'Sn', 'La', 'Pr', 'Th']",18,529.7176,8.0086,mm2,Amm2,38,orthorhombic,-104.6377,-1.0215,-0.0642,3D,0.0016,True,0.0,,-0.0642,-0.0607
121361,F28Tc3Tm4V1,50c544543d,Tm4VTc3F28,"['F', 'V', 'Tc', 'Tm']",36,514.0925,5.0151,1,P1,1,triclinic,-235.9601,-3.4547,-0.2333,3D,,True,-0.0,,-0.2333,-0.0631
121387,Bi1Gd4O12Tc2,50c9daa30b,Gd4Tc2BiO12,"['O', 'Tc', 'Gd', 'Bi']",19,260.9718,7.8008,m,Cm,8,monoclinic,-196.6955,-2.9644,-0.0417,3D,,True,0.0,,-0.0417,-0.0344
121425,Gd2Ho3O24Tb3W4,50d117592c,Tb3Gd2Ho3(WO6)4,"['O', 'Gd', 'Tb', 'Ho', 'W']",36,468.0023,8.5347,1,P1,1,triclinic,-345.3687,-3.3051,-0.0047,3D,3.3529,True,0.0,,-0.0047,-0.003
121442,Cl2Cs12In2Te8,50d58780ac,Cs6InTe4Cl,"['Cl', 'In', 'Te', 'Cs']",24,1149.4247,4.213,6mm,P6_3mc,186,hexagonal,-77.0159,-1.3302,-0.0739,intercalated ion,1.9074,True,0.0,,-0.0739,-0.0645
121470,Cl2Rb12Tb2Te8,50da8f2fde,Rb6TbTe4Cl,"['Cl', 'Rb', 'Te', 'Tb']",24,1089.324,3.7121,6mm,P6_3mc,186,hexagonal,-85.3111,-1.4764,-0.0437,intercalated ion,,True,0.0,,-0.0437,-0.0011
121481,Br12Ho1La5Li1Os1,50dd0048d6,LiLa5HoOsBr12,"['Li', 'Br', 'La', 'Ho', 'Os']",20,731.8405,4.5731,1,P1,1,triclinic,-102.8266,-2.0392,-0.0271,intercalated ion,0.1061,True,0.0,,-0.0271,-0.0264
121543,Br12La7P4Pr5,50ea325729,La7Pr5(PBr3)4,"['P', 'Br', 'La', 'Pr']",28,876.6109,5.2275,1,P1,1,triclinic,-154.3681,-1.9505,-0.0016,3D,0.0029,True,0.0,,-0.0016,-0.0016
121545,Gd2O12Ru1Tb4,50ea47f1df,Tb4Gd2RuO12,"['O', 'Ru', 'Gd', 'Tb']",19,267.5218,7.7171,1,P1,1,triclinic,-180.2693,-3.4174,-0.0082,3D,0.0021,True,0.0,,-0.0082,-0.004
121563,Au4O8Rb1Sm1,50eddd94b7,RbSm(AuO2)4,"['O', 'Rb', 'Sm', 'Au']",14,204.0613,9.3718,-4,I-4,82,tetragonal,-76.8746,-1.3212,-0.0439,intercalated ion,,True,0.0,,-0.0439,-0.0384
121577,Au1Gd5O12Tb1,50f13d874b,TbGd5AuO12,"['O', 'Gd', 'Tb', 'Au']",19,273.0307,8.114,1,P1,1,triclinic,-198.6373,-3.2091,-0.033,3D,0.0004,True,0.0,,-0.033,-0.0237
121591,Cl10Hg8S4Y2,50f3008eb8,YHg4S2Cl5,"['S', 'Cl', 'Y', 'Hg']",24,728.7022,5.1621,2,P2_1,4,monoclinic,-82.8734,-1.3533,-0.0263,3D,2.4602,True,0.0,,-0.0263,-0.0257
121598,Ba10O20Sb3Tc1,50f48e7e6c,Ba10TcSb3O20,"['O', 'Tc', 'Sb', 'Ba']",34,602.6096,5.9425,m,Cm,8,monoclinic,-231.7046,-2.6708,-0.0422,intercalated ion,0.001,True,0.0,,-0.0422,-0.0412
121650,F28Lu3Pd4Tm1,50fdd7a872,TmLu3Pd4F28,"['F', 'Pd', 'Tm', 'Lu']",36,494.973,5.5404,1,P1,1,triclinic,-195.3634,-2.8634,-0.0882,3D,1.6114,True,0.0,,-0.0882,-0.0272
121691,C1O1Se1U2,510644961e,U2CSeO,"['C', 'O', 'Se', 'U']",5,89.2509,10.8474,3m,P3m1,156,trigonal,-48.7798,-1.7053,-0.046,3D,0.0033,True,0.0,,-0.046,-0.0234
121714,B4Eu4O16Tb1Y3,510b89225b,TbEu4Y3(BO4)4,"['B', 'O', 'Y', 'Eu', 'Tb']",28,390.8658,5.6619,m,Pm,6,monoclinic,-268.1617,-3.467,-0.0119,3D,0.1116,True,-0.0,,-0.0119,-0.006
121718,Br6Cl1Nb3Se1,510c0fa435,Nb3SeBr6Cl,"['Cl', 'Se', 'Br', 'Nb']",11,312.9271,4.6302,m,Cm,8,monoclinic,-60.9253,-1.405,-0.0581,2D,0.6852,True,0.0,,-0.0581,-0.0012
121753,F14Tm2W1Zr1,5113137938,Tm2ZrWF14,"['F', 'Zr', 'Tm', 'W']",18,274.0612,5.3253,1,P1,1,triclinic,-127.3505,-3.8962,-0.1301,3D,,False,0.0,,-0.1301,-0.0405
121772,F28Pt3Ti1Y4,5116fa0f66,Y4TiPt3F28,"['F', 'Ti', 'Y', 'Pt']",36,524.6897,4.8127,1,P1,1,triclinic,-220.5138,-3.195,-0.0126,3D,,True,0.0,,-0.0126,-0.0126
121776,Ac8Ir3O24Zr1,511804f9aa,Ac8Zr(IrO8)3,"['O', 'Zr', 'Ir', 'Ac']",36,583.7161,8.1584,1,P1,1,triclinic,-291.0118,-2.8952,-0.1729,3D,,True,0.0,,-0.1729,-0.148
121784,Ba6O32Sr4Tc6,511accad40,Ba3Sr2Tc3O16,"['O', 'Sr', 'Tc', 'Ba']",48,788.1317,4.7921,6mm,P6_3cm,185,hexagonal,-359.5822,-2.5169,-0.2674,intercalated ion,0.5414,False,0.0,,-0.2674,-0.1682
121786,Br3Cl15Na6Pa3,511af747e8,Na2PaBrCl5,"['Na', 'Cl', 'Br', 'Pa']",27,828.8462,3.2106,1,P1,1,triclinic,-128.7568,-2.2088,-0.0286,intercalated ion,0.6015,True,0.0,,-0.0286,-0.0283
121788,Al3F1Gd6Tc13,511b4ef4d3,Gd6Al3Tc13F,"['F', 'Al', 'Tc', 'Gd']",23,402.2761,9.5661,m,Cm,8,monoclinic,-243.8018,-0.4951,-0.0953,3D,,True,0.0,,-0.0953,-0.0776
121850,Ba9O1Si14Sr4,5125af94c7,Ba9Sr4Si14O,"['O', 'Si', 'Sr', 'Ba']",28,814.0359,4.0708,m,Cm,8,monoclinic,-121.8266,-0.6034,-0.0229,intercalated ion,0.0013,True,0.0,,-0.0229,-0.0208
121871,F30Hf6In1Sc1,51297720ae,Hf6ScInF30,"['F', 'Sc', 'In', 'Hf']",38,475.4765,6.2886,32,R32,155,trigonal,-278.7224,-4.0145,-0.0054,3D,5.9869,True,0.0,,-0.0054,-0.0053
121879,Br18Tb1Y5,512a9c2ca1,TbY5Br18,"['Br', 'Y', 'Tb']",24,1078.0408,3.1449,2,C2,5,monoclinic,-122.0405,-2.317,-0.0106,2D,4.1821,True,0.0,,-0.0106,-0.0002
121967,Cd2Ge1O8Pd2,513895f391,Cd2Ge(PdO4)2,"['O', 'Ge', 'Pd', 'Cd']",13,165.0125,6.4233,2,C2,5,monoclinic,-73.9165,-1.3465,-0.0558,3D,1.3119,True,0.0,,-0.0558,-0.0236
121998,Lu5O12Re1Tc1,513ebcb78e,Lu5ReTcO12,"['O', 'Tc', 'Lu', 'Re']",19,239.0137,9.3863,2,C2,5,monoclinic,-169.5373,-3.408,-0.017,3D,,True,0.0,,-0.017,-0.0168
122004,La8O24Te1W3,513f870207,La8Te(WO8)3,"['O', 'Te', 'La', 'W']",36,552.2681,6.5378,1,P1,1,triclinic,-316.4986,-3.2289,-0.0001,3D,3.3449,True,0.0,,-0.0001,-0.0
122006,F20O2Ru2Sb2,513fc7e5c4,SbRuOF10,"['O', 'F', 'Ru', 'Sb']",26,440.175,3.2354,2,P2,3,monoclinic,-130.8443,-2.1505,-0.0115,0D,0.7183,True,0.0,,-0.0115,-0.0105
122013,O13Pb4Sb2Ta1V1,51414fee2e,TaVSb2Pb4O13,"['O', 'V', 'Sb', 'Ta', 'Pb']",21,301.9559,8.316,m,Cm,8,monoclinic,-153.2898,-2.1389,-0.0228,3D,,True,0.0,,-0.0228,-0.0228
122018,O6Pb1Sn1Te1,5142165b59,SnTePbO6,"['O', 'Sn', 'Te', 'Pb']",9,137.9264,6.6157,32,P312,149,trigonal,-56.4831,-1.77,-0.072,3D,2.0383,True,0.0,,-0.072,-0.072
122112,Gd5O14Ta2Tb1,51512679ee,TbGd5Ta2O14,"['O', 'Gd', 'Tb', 'Ta']",22,308.9671,8.2287,1,P1,1,triclinic,-252.0783,-3.8216,-0.0018,3D,2.8536,True,0.0,,-0.0018,-0.0015
122120,O14Sb1Ta3Th2,5153606989,Th2Ta3SbO14,"['O', 'Sb', 'Ta', 'Th']",20,257.0934,8.7368,m,Cm,8,monoclinic,-191.4383,-3.3818,-0.0129,3D,2.7381,True,-0.0,,-0.0129,-0.0129
122122,As8La1Li2O24Pr1,5153905ace,Li2LaPr(AsO3)8,"['Li', 'O', 'As', 'La', 'Pr']",36,548.2783,3.8677,2,C2,5,monoclinic,-245.2376,-2.1022,-0.0038,intercalated ion,3.2302,True,0.0,,-0.0038,-0.0023
122169,Ir3O13Pb4Rh1,5159b50724,Ir3RhPb4O13,"['O', 'Rh', 'Ir', 'Pb']",21,278.7338,10.225,3m,R3m,160,trigonal,-142.9743,-1.4248,-0.0283,3D,0.0106,True,0.0,,-0.0283,-0.0237
122201,Cs2O8Rb2Sc4,515e4b2612,CsRbSc2O4,"['O', 'Sc', 'Rb', 'Cs']",16,334.1155,3.7005,2,P2_1,4,monoclinic,-117.2261,-3.035,-0.0443,intercalated ion,,True,0.0,,-0.0443,-0.0185
122215,Lu1O13Pb4Ta3,51602d0e0b,LuTa3Pb4O13,"['O', 'Lu', 'Ta', 'Pb']",21,314.1123,9.2756,3m,R3m,160,trigonal,-178.2024,-2.8064,-0.0248,3D,1.7002,True,0.0,,-0.0248,-0.0248
122321,As2F20O2Re2,5174372520,ReAsOF10,"['O', 'F', 'As', 'Re']",26,425.9164,3.6423,2,P2,3,monoclinic,-145.7801,-2.4403,-0.0452,0D,1.7738,True,0.0,,-0.0452,-0.0424
122400,Br12Ge1La12Tc3,5181959c04,La12Tc3GeBr12,"['Ge', 'Br', 'Tc', 'La']",28,936.9523,5.3033,32,R32,155,trigonal,-157.7772,-1.5465,-0.0775,3D,,True,0.0,,-0.0775,-0.0679
122402,Lu3O24Sm2Tm3W4,5181984de1,Sm2Tm3Lu3(WO6)4,"['O', 'Sm', 'Tm', 'Lu', 'W']",36,454.9291,8.9492,1,P1,1,triclinic,-326.9246,-3.3309,-0.0054,3D,3.6162,True,0.0,,-0.0054,-0.0053
122430,Bi1La1O12Sr5W1,518550f23a,Sr5LaBiWO12,"['O', 'Sr', 'La', 'W', 'Bi']",20,343.9691,5.6088,1,P1,1,triclinic,-147.6631,-2.9028,-0.0199,intercalated ion,,True,0.0,,-0.0199,-0.0012
122475,Cl30Os3Sb3,518c5549c0,SbOsCl10,"['Cl', 'Sb', 'Os']",36,1207.8518,2.749,2,C2,5,monoclinic,-138.8623,-1.0371,-0.093,0D,,True,0.0,,-0.093,-0.0445
122625,Ag1Cu4O8Tb1,51a6981024,TbCu4AgO8,"['O', 'Cu', 'Ag', 'Tb']",14,157.6631,6.8351,-4,I-4,82,tetragonal,-83.4139,-1.4262,-0.0602,3D,0.2355,True,0.0,,-0.0602,-0.0438
122764,Bi3F28Mo4Sm1,51c1983e59,SmBi3Mo4F28,"['F', 'Mo', 'Sm', 'Bi']",36,594.5248,4.7287,1,P1,1,triclinic,-219.7447,-2.957,-0.0428,3D,,True,0.0,,-0.0428,-0.0329
122772,O20P4Te3U1,51c2d7bbeb,UTe3(PO5)4,"['O', 'P', 'Te', 'U']",28,404.4792,4.371,m,Pm,6,monoclinic,-206.3238,-2.3211,-0.0053,3D,0.244,False,0.0,,-0.0053,-0.005
122774,As1Gd2O8V1,51c36ad5ef,Gd2VAsO8,"['O', 'V', 'As', 'Gd']",12,169.4214,5.5706,-42m,I-4m2,119,tetragonal,-117.4448,-2.9972,-0.0045,3D,3.3444,True,0.0,,-0.0045,-0.0003
122866,Bi1O20P4U3,51d15ee4c6,U3Bi(PO5)4,"['O', 'P', 'Bi', 'U']",28,430.678,5.2705,1,P1,1,triclinic,-243.0134,-3.0227,-0.0274,3D,0.6718,True,0.0,,-0.0274,-0.0274
122876,Cl8Gd1Lu1,51d22721d1,GdLuCl8,"['Cl', 'Gd', 'Lu']",10,392.9678,2.6023,2,C2,5,monoclinic,-56.4964,-2.3111,-0.1676,intercalated molecule,inf,True,0.0,,-0.1676,-0.0589
122899,O2P1Zn1Zr6,51d57cb921,Zr6ZnPO2,"['O', 'P', 'Zn', 'Zr']",10,167.2773,6.7078,mm2,Amm2,38,orthorhombic,-83.8094,-1.5954,-0.0304,3D,0.013,True,0.0,,-0.0304,-0.0194
122928,F28La4Pt2Ru2,51d8d885b9,La2RuPtF14,"['F', 'Ru', 'La', 'Pt']",36,594.0485,4.6958,2,P2_1,4,monoclinic,-213.652,-3.0471,-0.05,3D,0.0851,True,0.0,,-0.05,-0.0499
123008,Bi2La3O14Sb2Sm1,51e6492eb7,La3SmBi2(SbO7)2,"['O', 'Sb', 'La', 'Sm', 'Bi']",22,330.0768,7.3074,m,Pm,6,monoclinic,-167.5122,-2.8489,-0.0108,3D,2.5081,True,0.0,,-0.0108,-0.0108
123036,O2Sn6Tb1Y5Zr4,51eb70e8f5,TbY5Zr4(Sn3O)2,"['O', 'Y', 'Zr', 'Sn', 'Tb']",18,403.7278,7.044,mm2,Amm2,38,orthorhombic,-128.8891,-1.321,-0.0254,3D,0.0045,True,0.0,,-0.0254,-0.0254
123102,Ge1O12Rh1Tm5,51f6234e71,Tm5GeRhO12,"['O', 'Ge', 'Rh', 'Tm']",19,240.5943,8.3665,2,C2,5,monoclinic,-155.6498,-3.2583,-0.0167,3D,0.2501,True,0.0,,-0.0167,-0.0163
123130,Br1S19U10,51f9d2d7b2,U10S19Br,"['S', 'Br', 'U']",30,656.6894,7.7615,1,P1,1,triclinic,-244.8904,-1.7249,-0.0097,3D,0.0001,True,0.0,,-0.0097,-0.0006
123184,O16Rh1Ru3Sr4,5203dab92f,Sr4Ru3RhO16,"['O', 'Sr', 'Ru', 'Rh']",24,351.5488,4.7829,2,P2,3,monoclinic,-169.1184,-2.0002,-0.0571,intercalated ion,,True,0.0,,-0.0571,-0.0515
123271,As5O24Pb8Tc1,5212c345fa,TcAs5(PbO3)8,"['O', 'As', 'Tc', 'Pb']",38,652.0173,6.4031,-4,I-4,82,tetragonal,-249.2365,-1.7665,-0.0291,3D,,True,0.0,,-0.0291,-0.0291
123364,Ca1O8Tb1Ti3,52223ed6bf,CaTbTi3O8,"['O', 'Ca', 'Ti', 'Tb']",13,163.285,4.7858,m,Cm,8,monoclinic,-116.8598,-3.6115,-0.0041,intercalated ion,0.006,True,0.0,,-0.0041,-0.0041
123393,F28Hf4Pr3Sm1,5227c51945,Pr3SmHf4F28,"['F', 'Pr', 'Sm', 'Hf']",36,601.4304,5.0222,1,P1,1,triclinic,-267.4675,-4.3071,-0.0029,3D,7.0081,True,0.0,,-0.0029,-0.0023
123526,F30Hf3Tm2Zr3,52419cdc55,Tm2Hf3Zr3F30,"['F', 'Zr', 'Tm', 'Hf']",38,509.3626,5.5974,1,P1,1,triclinic,-280.7312,-4.1821,-0.0082,3D,,True,0.0,,-0.0082,-0.0076
123549,Bi4Ce2F30Y2,52454fae34,CeYBi2F15,"['F', 'Y', 'Ce', 'Bi']",38,611.1824,5.0641,2,C2,5,monoclinic,-222.1971,-3.2761,-0.018,3D,0.721,True,0.0,,-0.018,-0.018
123606,Eu5Mo1O12Tc1,524cbc0949,Eu5TcMoO12,"['O', 'Mo', 'Tc', 'Eu']",19,278.2368,6.8379,2,C2,5,monoclinic,-187.2587,-2.9061,-0.0567,3D,0.0015,False,0.0,,-0.0567,-0.0276
123609,Ba7Eu1O16Si4,524d69d835,Ba7Eu(SiO4)4,"['O', 'Si', 'Ba', 'Eu']",28,455.1487,5.4053,m,Pm,6,monoclinic,-218.8354,-3.3658,-0.0048,intercalated ion,2.1595,True,0.0,,-0.0048,-0.0039
123616,Cl12Gd2N2Sm4,524e3e9281,Sm2GdNCl6,"['N', 'Cl', 'Sm', 'Gd']",20,508.6845,4.4702,1,P1,1,triclinic,-137.2872,-2.5703,-0.0813,3D,1.9994,True,0.0,,-0.0813,-0.0059
123627,Br4Cl3Nb3S1,5250779e12,Nb3SBr4Cl3,"['S', 'Cl', 'Br', 'Nb']",11,287.4012,4.2568,3m,P3m1,156,trigonal,-63.5046,-1.5428,-0.0311,2D,,True,0.0,,-0.0311,-0.0