Unnamed: 0,Composition,MaterialId,Reduced Formula,Elements,NSites,Volume,Density,Point Group,Space Group,Space Group Number,Crystal System,Corrected Energy,Formation Energy Per Atom,Decomposition Energy Per Atom,Dimensionality Cheon,Bandgap,Is Train,Decomposition Energy Per Atom All,Decomposition Energy Per Atom Relative,Decomposition Energy Per Atom MP,Decomposition Energy Per Atom MP OQMD
35871,Ho1Mo6O24Sm3,17e4b329c7,Sm3Ho(MoO4)6,"['O', 'Mo', 'Sm', 'Ho']",34,613.5369,4.2645,m,Cm,8,monoclinic,-292.3676,-2.6413,-0.0062,3D,3.587,False,0.0,,-0.0062,-0.0062
35891,Ho3O14Pr3Pu2,17e79afb70,Pr3Ho3Pu2O14,"['O', 'Pr', 'Ho', 'Pu']",22,329.3084,8.2168,1,P1,1,triclinic,-209.0601,-3.7801,-0.1357,3D,,True,0.0,,-0.1357,-0.0182
35919,Bi2Br4O16Sb10,17ebc21827,BiSb5(BrO4)2,"['O', 'Br', 'Sb', 'Bi']",32,619.5508,5.9264,222,P222_1,17,orthorhombic,-188.2869,-1.6719,-0.0211,intercalated ion,2.2262,True,0.0,,-0.0211,-0.0028
35930,Br7C2Sm5Y1,17ed0be9a4,Sm5YC2Br7,"['C', 'Br', 'Y', 'Sm']",15,421.6322,5.6084,m,Cm,8,monoclinic,-84.4564,-1.6323,-0.1164,2D,0.0062,True,0.0,,-0.1164,-0.004
35946,Bi4Cl16Ga4Te4,17f0137483,GaBiTeCl4,"['Cl', 'Ga', 'Te', 'Bi']",28,936.1085,3.8892,-4,I-4,82,tetragonal,-106.3943,-1.3061,-0.0293,0D,2.0661,True,0.0,,-0.0293,-0.0062
35966,O19Os6Pr2Sr2,17f3cc281f,Sr2Pr2Os6O19,"['O', 'Sr', 'Pr', 'Os']",29,390.5927,8.0878,2,C2,5,monoclinic,-237.8742,-2.1917,-0.0961,intercalated ion,0.0033,True,0.0,,-0.0961,-0.0632
35989,As1La5O12Pt1,17f7a6d711,La5AsPtO12,"['O', 'As', 'La', 'Pt']",19,291.6902,6.5839,2,C2,5,monoclinic,-154.1199,-3.1229,-0.0089,3D,1.5316,True,0.0,,-0.0089,-0.0089
36055,O4Pd7Pt1Ti16,1805dec20f,Ti16Pd7PtO4,"['O', 'Ti', 'Pd', 'Pt']",28,403.9422,7.2757,3m,R3m,160,trigonal,-223.109,-1.2378,-0.0099,3D,0.001,True,0.0,,-0.0099,-0.0092
36083,F14Gd2Pb2,180934b45e,GdPbF7,"['F', 'Gd', 'Pb']",18,303.3492,5.446,2,P2_1,4,monoclinic,-120.2455,-3.2171,-0.1675,3D,2.6818,True,0.0,,-0.1675,-0.0421
36138,Ba1Cu4O8Pr1Sr1,18142f4de8,BaSrPr(CuO2)4,"['O', 'Cu', 'Sr', 'Ba', 'Pr']",15,205.2992,6.0504,mm2,Amm2,38,orthorhombic,-94.7881,-2.0279,-0.004,intercalated ion,,True,0.0,,-0.004,-0.0008
36165,Bi4La1O22Sm3Ta4,18181bd87c,LaSm3Ta4(Bi2O11)2,"['O', 'La', 'Sm', 'Ta', 'Bi']",34,500.8728,8.2938,1,P1,1,triclinic,-296.3731,-3.101,-0.0025,3D,3.2756,False,0.0,,-0.0025,-0.0025
36171,Bi6Eu1O14Sm1,18190852bb,SmEu(Bi3O7)2,"['O', 'Sm', 'Eu', 'Bi']",22,350.7668,8.4275,1,P1,1,triclinic,-152.2009,-2.0263,-0.0306,3D,,False,0.0,,-0.0306,-0.0203
36199,F7Pb1Rb3,181cf6daff,Rb3PbF7,"['F', 'Rb', 'Pb']",11,238.7671,4.1491,m,Cm,8,monoclinic,-50.2214,-2.7443,-0.1768,intercalated ion,,True,0.0,,-0.1768,-0.003
36263,Ca1O6Te1Ti1,182ae9669f,CaTiTeO6,"['O', 'Ca', 'Ti', 'Te']",9,119.6996,4.3219,32,P312,149,trigonal,-67.0516,-2.7022,-0.0211,intercalated ion,2.3748,True,0.0,,-0.0211,-0.0211
36281,Ce1F20Rb8Sm3,182dae090d,Rb8CeSm3F20,"['F', 'Rb', 'Ce', 'Sm']",32,622.1805,4.4168,m,Pm,6,monoclinic,-184.6493,-3.7027,-0.0305,intercalated ion,0.2747,True,0.0,,-0.0305,-0.0157
36294,F12Os1Pb1Ta1,18314207b7,TaOsPbF12,"['F', 'Ta', 'Os', 'Pb']",15,261.205,5.1262,1,P1,1,triclinic,-92.2563,-2.8347,-0.0251,2D,,True,0.0,,-0.0251,-0.0248
36376,Ca1H2O4,183f83877a,Ca(HO2)2,"['H', 'O', 'Ca']",7,100.9629,1.7449,1,P1,1,triclinic,-40.6936,-1.7301,-0.1829,intercalated ion,0.2289,True,0.0,,-0.1829,-0.1789
36466,La4O24Pr2Te4Tl2,18515863b8,La2PrTl(TeO6)2,"['O', 'Te', 'La', 'Pr', 'Tl']",36,542.0188,6.558,2,P2_1,4,monoclinic,-257.802,-2.568,-0.0102,3D,1.984,True,0.0,,-0.0102,-0.0102
36504,Cd1Cl12Ir3,1856a48ed9,Cd(IrCl4)3,"['Cl', 'Cd', 'Ir']",16,422.7592,4.3776,2,C2,5,monoclinic,-66.4848,-1.054,-0.0542,3D,0.002,True,0.0,,-0.0542,-0.0169
36566,Cl8Eu1Tm1,18620b9211,EuTmCl8,"['Cl', 'Eu', 'Tm']",10,395.2792,2.5396,2,C2,5,monoclinic,-51.7604,-2.2204,-0.2153,intercalated molecule,0.0003,True,0.0,,-0.2153,-0.0576
36571,Ho5Mo4O24Pr3,18625e4917,Pr3Ho5(MoO6)4,"['O', 'Mo', 'Pr', 'Ho']",36,477.7142,7.0046,2,P2,3,monoclinic,-313.1205,-3.1592,-0.0003,3D,2.6741,True,0.0,,-0.0003,-0.0003
36585,O24Pr2Tb1W4Y5,18649a67f7,TbPr2Y5(WO6)4,"['O', 'Y', 'Pr', 'Tb', 'W']",36,479.5941,6.9407,2,P2,3,monoclinic,-335.1201,-3.278,-0.0134,3D,3.5985,True,0.0,,-0.0134,-0.0134
36603,Br4La1Na1O12,18682ea45b,NaLa(BrO3)4,"['O', 'Na', 'Br', 'La']",18,285.067,3.9232,1,P1,1,triclinic,-91.0319,-1.047,-0.1102,intercalated ion,3.9779,False,0.0,,-0.1102,-0.0891
36613,Bi4F28Pt1Zr3,186a64110a,Zr3Bi4PtF28,"['F', 'Zr', 'Pt', 'Bi']",36,593.0519,5.1426,1,P1,1,triclinic,-214.2749,-3.1522,-0.0281,3D,2.5256,True,0.0,,-0.0281,-0.028
36627,Br12La5Rh2Y3,186e40cb54,La5Y3(RhBr6)2,"['Br', 'Y', 'Rh', 'La']",22,844.0159,4.1826,m,Pm,6,monoclinic,-121.3771,-1.9512,-0.0025,3D,,True,0.0,,-0.0025,-0.0025
36685,C2Cl10Gd3Sm3,18797a69c5,Sm3Gd3(CCl5)2,"['C', 'Cl', 'Sm', 'Gd']",18,513.2331,4.2106,1,P1,1,triclinic,-133.051,-2.2037,-0.0877,3D,,True,0.0,,-0.0877,-0.0265
36779,Cu1O18Pt6Sr2,188aaedc80,Sr2Cu(PtO3)6,"['O', 'Cu', 'Sr', 'Pt']",27,328.0036,8.5926,1,P1,1,triclinic,-167.8045,-1.2903,-0.1029,intercalated ion,,True,0.0,,-0.1029,-0.0871
36817,Cl8S32Ta2,18918afcb6,Ta(S4Cl)4,"['S', 'Cl', 'Ta']",42,1535.0977,1.8082,mm2,Fdd2,43,orthorhombic,-203.0901,-0.7671,-0.2981,0D,,True,0.0,,-0.2981,-0.2552
36833,F14Pr2Pu2,189488c636,PrPuF7,"['F', 'Pr', 'Pu']",18,334.4966,5.142,2,P2_1,4,monoclinic,-138.6985,-4.1022,-0.0296,3D,0.6398,True,0.0,,-0.0296,-0.0287
36844,F28Pr3W4Y1,1897c04c8d,Pr3Y(WF7)4,"['F', 'Y', 'Pr', 'W']",36,590.4462,5.003,1,P1,1,triclinic,-253.2139,-3.5292,-0.1068,3D,,True,0.0,,-0.1068,-0.0952
36853,Cl28U2,1899346491,UCl14,"['Cl', 'U']",30,1355.8259,1.7988,mm2,Fdd2,43,orthorhombic,-112.1076,-1.2589,-0.3141,0D,,True,0.0,,-0.3141,-0.3138
36899,Li12O48Sm5W8Y7,189fc3a1e1,Li12Sm5Y7(WO6)8,"['Li', 'O', 'Y', 'Sm', 'W']",80,959.712,6.3952,1,P1,1,triclinic,-672.5026,-2.9946,-0.0115,3D,3.7301,True,0.0,,-0.0115,-0.0073
36905,Al8F18K3O16P4Rb3,18a07cae77,K3Rb3Al8P4(O8F9)2,"['O', 'F', 'Al', 'P', 'K', 'Rb']",52,679.4195,3.2052,1,P1,1,triclinic,-347.2407,-3.3803,-0.012,intercalated ion,,True,0.0,,-0.012,-0.0102
36941,B8Gd2Li12O24Pr2,18a507c868,Li6PrGd(BO3)4,"['Li', 'B', 'O', 'Pr', 'Gd']",48,527.8726,3.6178,2,P2_1,4,monoclinic,-374.9355,-2.961,-0.0222,intercalated ion,3.2294,True,0.0,,-0.0222,-0.0046
36967,F7Rb1Tl1Y1,18ac10a702,RbYTlF7,"['F', 'Rb', 'Y', 'Tl']",10,177.528,4.7867,mm2,Amm2,38,orthorhombic,-55.9106,-3.2722,-0.0008,intercalated ion,,True,0.0,,-0.0008,-0.0005
37034,F28Ho3Np1Zr4,18b53983f2,Ho3Zr4NpF28,"['F', 'Zr', 'Ho', 'Np']",36,575.2902,4.701,1,P1,1,triclinic,-264.3648,-4.1655,-0.0127,3D,0.2149,True,0.0,,-0.0127,-0.0106
37040,Cs2F21Li1V6,18b602fcf8,Cs2LiV6F21,"['Li', 'F', 'V', 'Cs']",30,504.449,3.2173,2,C2,5,monoclinic,-195.2233,-3.2292,-0.0015,intercalated ion,,True,0.0,,-0.0015,-0.0008
37076,Al2Cl4Cs2S2,18bab87aa9,CsAlSCl2,"['Al', 'S', 'Cl', 'Cs']",10,343.2622,2.5432,2,P2_1,4,monoclinic,-44.6828,-1.9734,-0.0325,intercalated ion,3.9916,False,0.0,,-0.0325,-0.0096
37108,Br20Na1Rb7U4,18bf24fa87,Rb7Na(UBr5)4,"['Na', 'Br', 'Rb', 'U']",32,1168.1285,4.5084,1,P1,1,triclinic,-148.3812,-1.9466,-0.0476,intercalated ion,0.0551,False,0.0,,-0.0476,-0.0444
37120,La1O19Pr4U5,18c1349f94,LaPr4U5O19,"['O', 'La', 'Pr', 'U']",29,425.6093,8.5704,1,P1,1,triclinic,-286.5177,-3.8617,-0.0896,3D,0.0072,True,0.0,,-0.0896,-0.0534
37139,Br6Ce3La9Si14,18c502f9fe,La9Ce3(Si7Br3)2,"['Si', 'Br', 'La', 'Ce']",32,820.6695,5.1457,m,Pm,6,monoclinic,-185.4168,-1.1693,-0.0182,3D,,False,-0.0,,-0.0182,-0.0089
37142,As1Br12Ge1Pr12Si2,18c534c68c,Pr12Si2GeAsBr12,"['Si', 'Ge', 'As', 'Br', 'Pr']",28,900.5961,5.2613,2,C2,5,monoclinic,-145.555,-1.7289,-0.087,3D,0.0013,True,0.0,,-0.087,-0.0704
37148,O18Os5Pr2Ti1,18c5cdefd3,Pr2TiOs5O18,"['O', 'Ti', 'Pr', 'Os']",26,328.7611,7.924,1,P1,1,triclinic,-219.1243,-2.1718,-0.031,3D,0.0028,True,0.0,,-0.031,-0.0151
37161,Cl18Nb6Rb1Sm1,18c85af60c,RbSm(NbCl3)6,"['Cl', 'Rb', 'Nb', 'Sm']",26,694.7731,3.4212,3,R3,146,trigonal,-149.2914,-1.912,-0.0111,intercalated ion,1.0747,True,0.0,,-0.0111,-0.011
37166,O18Sc4W3Y2,18c9187e7b,Y2Sc4(WO6)3,"['O', 'Sc', 'Y', 'W']",27,345.6811,5.7507,2,C2,5,monoclinic,-253.7765,-3.2436,-0.0299,3D,3.4672,True,0.0,,-0.0299,-0.0064
37175,F6Np1O4,18caf12e4d,Np(O2F3)2,"['O', 'F', 'Np']",11,211.0808,3.2646,4mm,I4mm,107,tetragonal,-68.9179,-2.2463,-0.039,0D,,True,-0.0,,-0.039,-0.0337
37183,As1B2Br12Ge1Pr12,18cc1608a3,Pr12GeB2AsBr12,"['B', 'Ge', 'As', 'Br', 'Pr']",28,864.8645,5.4123,2,C2,5,monoclinic,-145.6749,-1.6436,-0.0377,3D,0.0014,True,0.0,,-0.0377,-0.0307
37187,Al3F18Na3Zn3,18cccdb175,NaAlZnF6,"['F', 'Na', 'Al', 'Zn']",27,332.8689,3.4327,32,P321,150,trigonal,-142.0576,-3.284,-0.0067,intercalated ion,5.4291,True,0.0,,-0.0067,-0.0058
37228,Eu1O18Pr3Se6,18d3aba84f,Pr3Eu(SeO3)6,"['O', 'Se', 'Pr', 'Eu']",28,482.2055,4.6022,1,P1,1,triclinic,-197.6082,-2.2477,-0.0415,3D,,True,0.0,,-0.0415,-0.0349
37229,Cl18Nb6Rb1Y1,18d3efd631,RbY(NbCl3)6,"['Cl', 'Rb', 'Y', 'Nb']",26,681.5796,3.3377,3,R3,146,trigonal,-151.0791,-1.9135,-0.0093,intercalated ion,1.0688,True,0.0,,-0.0093,-0.0091
37249,Bi4Eu1La3O16,18d7f05670,La3Eu(BiO4)4,"['O', 'La', 'Eu', 'Bi']",24,371.4015,7.4245,1,P1,1,triclinic,-177.207,-2.3908,-0.0929,3D,,True,0.0,,-0.0929,-0.0289
37282,N1O1P1U2,18de4ef3b4,U2PNO,"['N', 'O', 'P', 'U']",5,82.756,10.7759,3m,P3m1,156,trigonal,-51.6855,-2.081,-0.008,intercalated ion,0.002,True,0.0,,-0.008,-0.0072
37296,Br12C2K1Rb1Sm6,18e080df4f,KRbSm6(CBr6)2,"['C', 'K', 'Br', 'Rb', 'Sm']",22,698.3095,4.7787,1,P1,1,triclinic,-110.6114,-1.9142,-0.101,intercalated ion,,True,0.0,,-0.101,-0.03
37300,F8K1Ti2,18e1cb78bc,KTi2F8,"['F', 'K', 'Ti']",11,185.6215,2.5658,1,P1,1,triclinic,-72.2903,-3.6452,-0.0236,intercalated ion,0.0044,True,0.0,,-0.0236,-0.0235
37321,F3K1O2,18e4c44bda,KO2F3,"['O', 'F', 'K']",6,101.421,2.0972,1,P1,1,triclinic,-24.5076,-1.2945,-0.0668,intercalated ion,1.5803,True,0.0,,-0.0668,-0.0519
37329,Ag4La1O12Sm3,18e5463c30,LaSm3(AgO3)4,"['O', 'Ag', 'La', 'Sm']",20,295.4234,6.8207,m,Pm,6,monoclinic,-133.4014,-2.1802,-0.0577,3D,,True,0.0,,-0.0577,-0.0325
37362,Cl18Cs1Ta6U1,18ea02adc1,CsUTa6Cl18,"['Cl', 'Cs', 'Ta', 'U']",26,704.7497,4.9357,3,R3,146,trigonal,-164.2187,-1.8312,-0.0057,intercalated ion,,True,0.0,,-0.0057,-0.0038
37382,Br2C2Th2Tm2,18ed758888,TmThCBr,"['C', 'Br', 'Tm', 'Th']",8,171.0344,9.5707,6mm,P6_3mc,186,hexagonal,-53.9759,-1.0586,-0.1247,3D,0.0058,True,0.0,,-0.1247,-0.0093
37432,O18Sb6Tb1Y1,18f5ccc399,TbY(SbO3)6,"['O', 'Y', 'Sb', 'Tb']",26,329.4489,6.383,m,Pm,6,monoclinic,-184.1893,-2.2789,-0.0185,3D,,True,0.0,,-0.0185,-0.0185
37461,Ho4O24Ti1V3W4,18f96784d9,Ho4TiV3(WO6)4,"['O', 'Ti', 'V', 'Ho', 'W']",36,432.9422,7.5933,1,P1,1,triclinic,-330.4085,-2.9541,-0.0065,3D,1.6873,True,0.0,,-0.0065,-0.0006
37471,Br35Zn1,18fb5e240e,ZnBr35,"['Zn', 'Br']",36,1793.7135,2.6496,1,P1,1,triclinic,-78.8576,-0.564,-0.4583,0D,,True,0.0,,-0.4583,-0.4578
37498,Br12Ga2Si2Sm12,18fed86fa3,Sm6GaSiBr6,"['Si', 'Ga', 'Br', 'Sm']",28,844.5378,5.8176,222,F222,22,orthorhombic,-137.3925,-1.5793,-0.0668,3D,0.0162,True,0.0,,-0.0668,-0.0497
37505,Cl2In2K12Se8,19002da52e,K6InSe4Cl,"['Cl', 'K', 'Se', 'In']",24,795.3693,2.9258,6mm,P6_3mc,186,hexagonal,-85.0792,-1.4411,-0.0235,intercalated ion,2.1675,True,-0.0,,-0.0235,-0.0186
37518,Bi2Ca10F1Si4,19025690a8,Ca10Si4Bi2F,"['F', 'Si', 'Ca', 'Bi']",17,456.1093,3.4589,-42m,I-42m,121,tetragonal,-67.9695,-0.9718,-0.0485,intercalated ion,0.0237,True,0.0,,-0.0485,-0.0429
37555,K4O6Sm1U1,1908ea1816,K4SmUO6,"['O', 'K', 'Sm', 'U']",12,213.0263,4.9949,2,C2,5,monoclinic,-83.8869,-2.8123,-0.0106,intercalated ion,0.8456,True,0.0,,-0.0106,-0.0106
37613,F28Pt3Tb4Zr1,1913544417,Tb4ZrPt3F28,"['F', 'Zr', 'Tb', 'Pt']",36,540.4854,5.6657,1,P1,1,triclinic,-215.8858,-3.2518,-0.0012,3D,2.4257,False,0.0,,-0.0012,-0.0007
37615,Cl3I9Pt4,1913a778e0,Pt4(I3Cl)3,"['Cl', 'I', 'Pt']",16,549.3635,6.1325,1,P1,1,triclinic,-52.4292,-0.5552,-0.018,2D,0.558,True,-0.0,,-0.018,-0.0111
37667,Cu2Ir3O12Pd1,191cb51515,Cu2Ir3PdO12,"['O', 'Cu', 'Pd', 'Ir']",18,193.9392,8.5806,2,P2,3,monoclinic,-118.5464,-1.071,-0.079,3D,,True,0.0,,-0.079,-0.0484
37680,Br1N12P6Sc1Zn2,191eb7eb72,ScZn2P6BrN12,"['N', 'P', 'Sc', 'Zn', 'Br']",22,295.3021,3.4279,m,Cm,8,monoclinic,-160.8597,-0.8115,-0.0895,3D,,True,0.0,,-0.0895,-0.0863
37706,Br1Pr16Si15Y4,192352d8b0,Pr16Y4Si15Br,"['Si', 'Br', 'Y', 'Pr']",36,946.2258,5.4601,1,P1,1,triclinic,-211.8385,-0.735,-0.0243,3D,0.001,True,0.0,,-0.0243,-0.0204
37738,Bi6Ir2O18Ru1,19286597b7,Bi6Ir2RuO18,"['O', 'Ru', 'Ir', 'Bi']",27,390.9879,8.6103,3,P3,143,trigonal,-179.9355,-1.503,-0.0457,3D,0.0026,True,0.0,,-0.0457,-0.0457
37749,Br7I1Pt2,192a44cbd9,Pt2IBr7,"['Br', 'I', 'Pt']",10,343.5145,5.2033,1,P1,1,triclinic,-31.6159,-0.6492,-0.0514,1D,,True,0.0,,-0.0514,-0.007
37812,K1O12Pa3Sr4,19347d4167,KSr4Pa3O12,"['O', 'K', 'Sr', 'Pa']",20,334.272,6.3321,1,P1,1,triclinic,-169.0444,-3.6628,-0.3079,intercalated ion,2.8363,True,0.0,,-0.3079,-0.1862
37833,Ca1O44P12Sr7V4,1937da122b,Sr7CaV4(P3O11)4,"['O', 'P', 'Ca', 'V', 'Sr']",68,889.922,3.6066,1,P1,1,triclinic,-540.2665,-3.0504,-0.0019,intercalated ion,,True,-0.0,,-0.0019,-0.0019
37843,Ca1O18Os6Y1,193917a577,CaY(OsO3)6,"['O', 'Ca', 'Y', 'Os']",26,318.2664,8.1306,m,Pm,6,monoclinic,-213.7725,-1.8797,-0.0406,intercalated ion,0.0008,True,-0.0,,-0.0406,-0.0273
37869,Mo10O50P12Tl6,193ca9fade,Tl3Mo5P6O25,"['O', 'P', 'Mo', 'Tl']",78,1296.6409,4.2996,3m,P31c,159,trigonal,-613.9806,-2.2948,-0.0165,intercalated ion,,True,0.0,,-0.0165,-0.0045
37888,C2Cl2La1Tb3,193ea74063,LaTb3(CCl)2,"['C', 'Cl', 'La', 'Tb']",8,165.3882,7.1347,3m,P3m1,156,trigonal,-50.9055,-1.2395,-0.0824,3D,,True,0.0,,-0.0824,-0.0017
37889,F11H2V2,193ebcba2f,V2H2F11,"['H', 'F', 'V']",15,227.2766,2.286,1,P1,1,triclinic,-84.9704,-2.5994,-0.0223,2D,2.071,True,0.0,,-0.0223,-0.0157
37892,Be1Br2Gd2Si1,193effa344,Gd2BeSiBr2,"['Be', 'Si', 'Br', 'Gd']",6,154.015,5.5138,3m,P3m1,156,trigonal,-49.1106,-1.42,-0.0672,intercalated ion,0.0209,True,0.0,,-0.0672,-0.0457
37923,Cu4Li1O8Tm1,19440efc95,LiTm(CuO2)4,"['Li', 'O', 'Cu', 'Tm']",14,147.4261,6.2857,-4,I-4,82,tetragonal,-85.2792,-1.6367,-0.0228,intercalated ion,0.6391,True,0.0,,-0.0228,-0.0211
37924,Cd1O16Sr3W4,194424be55,Sr3Cd(WO4)4,"['O', 'Sr', 'Cd', 'W']",24,367.4119,6.1765,1,P1,1,triclinic,-198.5542,-2.5651,-0.007,intercalated ion,3.4827,True,0.0,,-0.007,-0.007
37951,Hg7In1La4O4,1949b9c9d3,La4InHg7O4,"['O', 'In', 'La', 'Hg']",16,383.3861,9.2627,1,P1,1,triclinic,-73.3653,-1.8095,-0.0419,3D,0.0136,True,0.0,,-0.0419,-0.0336
37991,O15Pt5Rb6,194f42c5c2,Rb6(PtO3)5,"['O', 'Rb', 'Pt']",26,494.3776,5.8048,32,R32,155,trigonal,-144.4598,-1.3078,-0.2526,intercalated ion,,True,-0.0,,-0.2526,-0.0718
37994,Cl7Ir2Te11,194f89b065,Te11Ir2Cl7,"['Cl', 'Te', 'Ir']",20,647.2744,5.2237,1,P1,1,triclinic,-81.2659,-0.8036,-0.1925,1D,0.3085,True,0.0,,-0.1925,-0.1167
38002,Br6O18Sc2,195164b5a8,Sc(BrO3)3,"['O', 'Sc', 'Br']",26,446.7637,3.1865,m,Cc,9,monoclinic,-137.2466,-0.9883,-0.11,3D,3.8125,True,0.0,,-0.11,-0.1068
38015,Hf1Li12O14Sn3,195437c519,Li12HfSn3O14,"['Li', 'O', 'Sn', 'Hf']",30,310.9463,4.496,1,P1,1,triclinic,-186.2579,-2.4031,-0.0126,intercalated ion,,True,0.0,,-0.0126,-0.0008
38050,Br8Ge2S32,195975db30,Ge(S4Br)4,"['S', 'Ge', 'Br']",42,1596.2676,1.8835,mm2,Fdd2,43,orthorhombic,-181.1904,-0.6305,-0.3777,0D,,True,0.0,,-0.3777,-0.3777
38092,Cl2In6Sm7Tb3,19604dc600,Tb3Sm7(In3Cl)2,"['Cl', 'In', 'Sm', 'Tb']",18,504.3124,7.5373,32,P312,149,trigonal,-80.7345,-0.7552,-0.0143,3D,,True,0.0,,-0.0143,-0.012
38117,In1K1O4Pt1,1964c01858,KInPtO4,"['O', 'K', 'In', 'Pt']",7,109.9882,6.2352,m,Pm,6,monoclinic,-40.685,-1.5657,-0.0347,2D,,True,-0.0,,-0.0347,-0.0051
38125,Ba4F24Mo4Na4,196601b341,BaNaMoF6,"['F', 'Na', 'Mo', 'Ba']",36,640.8563,3.8374,222,P2_12_12_1,19,orthorhombic,-221.5214,-3.3138,-0.0433,intercalated ion,4.1716,True,0.0,,-0.0433,-0.0422
38186,Nb1O20P4Re3,196f320194,NbRe3(PO5)4,"['O', 'P', 'Nb', 'Re']",28,435.4089,4.1776,1,P1,1,triclinic,-237.6602,-2.4862,-0.0095,3D,0.0085,True,-0.0,,-0.0095,-0.0021
38206,Ba2Ga2Lu2O14Zn6,19749e7c98,BaLuZn3GaO7,"['O', 'Zn', 'Ga', 'Ba', 'Lu']",26,362.5805,6.3223,6mm,P6_3mc,186,hexagonal,-162.5333,-2.568,-0.0086,intercalated ion,2.1411,False,0.0,,-0.0086,-0.0063
38246,Bi3Ho3O14Ru1Sb1,197bd217af,Ho3Bi3SbRuO14,"['O', 'Ru', 'Sb', 'Ho', 'Bi']",22,307.5404,8.4693,1,P1,1,triclinic,-163.5504,-2.5208,-0.017,3D,,True,0.0,,-0.017,-0.017
38329,Ba2Ce1F12Th1,198c4bc224,Ba2CeThF12,"['F', 'Ba', 'Ce', 'Th']",16,285.9741,5.0796,222,C222,21,orthorhombic,-108.5615,-4.2774,-0.0411,intercalated ion,2.4654,True,0.0,,-0.0411,-0.0241
38330,Gd3Ho1O18Se6,198cb41811,Gd3Ho(SeO3)6,"['O', 'Se', 'Gd', 'Ho']",28,452.3263,5.1338,1,P1,1,triclinic,-222.0819,-2.3297,-0.1417,3D,3.067,True,0.0,,-0.1417,-0.0496
38430,Ba8O14Sb2,19a0d59e69,Ba4SbO7,"['O', 'Sb', 'Ba']",24,431.2425,6.0305,2,P2_1,4,monoclinic,-156.4947,-2.6506,-0.017,intercalated ion,,True,0.0,,-0.017,-0.017
38447,O13Sn3Ta4,19a3ff3ffb,Ta4Sn3O13,"['O', 'Sn', 'Ta']",20,304.9673,7.0127,3m,R3m,160,trigonal,-181.1354,-2.8676,-0.0171,3D,2.6179,True,0.0,,-0.0171,-0.0171
38454,Bi3La1O16Sb4,19a4c3893b,LaBi3(SbO4)4,"['O', 'Sb', 'La', 'Bi']",24,359.535,6.9689,1,P1,1,triclinic,-162.92,-2.1096,-0.0153,3D,2.7292,True,0.0,,-0.0153,-0.0153
38491,F12Ho2K3Rb3,19aaca3d67,K3Rb3Ho2F12,"['F', 'K', 'Rb', 'Ho']",20,409.101,3.7811,1,P1,1,triclinic,-110.5158,-3.607,-0.0242,intercalated ion,6.3588,True,0.0,,-0.0242,-0.0017
38502,Cs2O16Rh2Sn6,19ad8ca1c5,CsSn3RhO8,"['O', 'Rh', 'Sn', 'Cs']",26,372.3006,6.4221,1,Cm,8,monoclinic,-169.088,-1.8978,-0.0316,inf,0.4399,True,0.0,,-0.0316,-0.0316
38521,O8Pr1Pt4Sr1,19b060003c,SrPr(PtO2)4,"['O', 'Sr', 'Pr', 'Pt']",14,189.7804,9.9473,-4,I-4,82,tetragonal,-95.4245,-1.7919,-0.092,intercalated ion,0.0012,False,0.0,,-0.092,-0.0758
38534,Al8Ba8La4O30Sr4,19b22edc52,Ba4Sr2La2Al4O15,"['O', 'Al', 'Sr', 'Ba', 'La']",54,825.6743,5.4312,m,Cc,9,monoclinic,-403.7098,-3.3973,-0.0086,intercalated ion,,True,0.0,,-0.0086,-0.0086
38544,F7H5,19b4816dbf,H5F7,"['H', 'F']",12,130.0412,1.7625,1,P1,1,triclinic,-48.9544,-1.5509,-0.1383,0D,3.2391,True,0.0,,-0.1383,-0.1185
38552,Br18Ce1P2Zr1,19b621efaf,CeZr(PBr9)2,"['P', 'Br', 'Zr', 'Ce']",22,935.9775,3.072,1,P1,1,triclinic,-83.4514,-1.3036,-0.0333,0D,1.2869,True,0.0,,-0.0333,-0.0067
38572,O12Ta1Tb5V1,19b916ab41,Tb5TaVO12,"['O', 'V', 'Tb', 'Ta']",19,258.5501,7.8259,2,C2,5,monoclinic,-173.9814,-3.7101,-0.0131,3D,2.1232,True,0.0,,-0.0131,-0.0124
38597,As8Bi3Ho1O18,19be5d8449,HoBi3(As4O9)2,"['O', 'As', 'Ho', 'Bi']",30,492.6328,5.6603,1,P1,1,triclinic,-198.724,-1.8712,-0.03,3D,3.2439,True,0.0,,-0.03,-0.009
38651,La7O3Si7Y3Zn1,19c6a6ddac,La7Y3ZnSi7O3,"['O', 'Si', 'Zn', 'Y', 'La']",21,462.7395,5.5588,mm2,Amm2,38,orthorhombic,-139.568,-1.5017,-0.0393,3D,0.0013,True,0.0,,-0.0393,-0.0383
38707,Ca12Ga8O48Sn8Ti4,19d0add9a8,Ca3TiGa2(SnO6)2,"['O', 'Ca', 'Ti', 'Ga', 'Sn']",80,1043.4897,4.691,1,P1,1,triclinic,-576.5231,-2.8384,-0.0317,intercalated ion,,True,0.0,,-0.0317,-0.0317
38741,Br18Ir3Rb6Rh1,19d6784af0,Rb6Ir3RhBr18,"['Br', 'Rb', 'Rh', 'Ir']",28,952.9954,4.5837,3m,P3m1,156,trigonal,-105.7289,-1.3036,-0.0091,intercalated ion,1.0947,True,0.0,,-0.0091,-0.0088
38783,C1Cl3S24,19deb5dee7,C(S8Cl)3,"['C', 'S', 'Cl']",28,1114.4171,1.3231,3m,R3m,160,trigonal,-127.2991,-0.4733,-0.1533,0D,,True,0.0,,-0.1533,-0.1533
38832,Cl2Ho3La7Sn6,19e6d5e3cd,La7Ho3(Sn3Cl)2,"['Cl', 'Sn', 'La', 'Ho']",18,520.5875,7.1779,32,P312,149,trigonal,-95.7805,-1.0959,-0.01,3D,,False,-0.0,,-0.01,-0.0097
38917,Au4La1O12Pr3,19f4404bc6,LaPr3(AuO3)4,"['O', 'La', 'Pr', 'Au']",20,306.7974,8.3433,m,Pm,6,monoclinic,-136.8033,-2.2527,-0.101,3D,,True,0.0,,-0.101,-0.0259
38947,Ca1Cl3S24,19fb3b4199,Ca(S8Cl)3,"['S', 'Cl', 'Ca']",28,815.1898,1.8659,3m,R3m,160,trigonal,-126.3222,-0.6963,-0.3621,intercalated ion,0.0033,False,0.0,,-0.3621,-0.3464
38965,Br7I5Ti4,1a000f4ff7,Ti4I5Br7,"['Ti', 'Br', 'I']",16,629.8176,3.6524,m,Pm,6,monoclinic,-73.4288,-1.423,-0.021,1D,0.156,True,0.0,,-0.021,-0.0031
38979,Ca1Ga2O10Sr1Ta2,1a030b0326,SrCaTa2(GaO5)2,"['O', 'Ca', 'Ga', 'Sr', 'Ta']",16,220.028,5.9548,2,C2,5,monoclinic,-132.9724,-3.1266,-0.003,intercalated ion,3.5317,True,0.0,,-0.003,-0.003
38994,Br6Ir1Tl1,1a05db2773,TlIrBr6,"['Br', 'Ir', 'Tl']",8,282.982,5.1405,2,C2,5,monoclinic,-27.8254,-0.8505,-0.099,2D,,True,0.0,,-0.099,-0.0513