Unnamed: 0,Composition,MaterialId,Reduced Formula,Elements,NSites,Volume,Density,Point Group,Space Group,Space Group Number,Crystal System,Corrected Energy,Formation Energy Per Atom,Decomposition Energy Per Atom,Dimensionality Cheon,Bandgap,Is Train,Decomposition Energy Per Atom All,Decomposition Energy Per Atom Relative,Decomposition Energy Per Atom MP,Decomposition Energy Per Atom MP OQMD
6623,Br3S24Sn1,046fc0aaf2,Sn(S8Br)3,"['S', 'Br', 'Sn']",28,966.1683,1.9386,3m,R3m,160,trigonal,-123.8452,-0.5589,-0.3901,0D,,True,0.0,,-0.3901,-0.39
6676,Br5C2La3Sm1,0477b988ca,La3SmC2Br5,"['C', 'Br', 'La', 'Sm']",11,319.9558,5.1412,m,Cm,8,monoclinic,-64.8336,-1.6972,-0.0337,3D,0.0274,True,0.0,,-0.0337,-0.0106
6731,Gd11O24Sb3,04827e8a45,Gd11(SbO8)3,"['O', 'Sb', 'Gd']",38,544.9704,7.5536,1,P1,1,triclinic,-419.7649,-3.5208,-0.0874,3D,0.0446,True,-0.0,,-0.0874,-0.0787
6750,Bi4O24Te4Tl4,0485774cff,TlBiTeO6,"['O', 'Te', 'Tl', 'Bi']",36,516.4947,8.1913,222,P2_12_12_1,19,orthorhombic,-209.444,-1.4754,-0.0207,3D,,True,0.0,,-0.0207,-0.0192
6829,H2O2Pd1Pm2Pt1,04955495fd,Pm2H2PdPtO2,"['H', 'O', 'Pd', 'Pm', 'Pt']",8,117.7333,8.8225,-42m,P-4m2,115,tetragonal,-52.9171,-1.9355,-0.0931,3D,0.2079,True,0.0,,-0.0931,-0.0537
6913,La3O3Pr4Si8Y3,04a332fed1,La3Pr4Y3Si8O3,"['O', 'Si', 'Y', 'La', 'Pr']",21,451.604,5.5881,mm2,Amm2,38,orthorhombic,-143.4474,-1.5176,-0.0213,3D,0.0012,True,-0.0,,-0.0213,-0.0208
7040,Cl20In8Tb1Y3,04ba8861e7,TbY3(In2Cl5)4,"['Cl', 'Y', 'In', 'Tb']",32,918.2432,3.7131,m,Pm,6,monoclinic,-145.2222,-1.9439,-0.0125,intercalated ion,2.8162,True,0.0,,-0.0125,-0.0095
7054,B2Cl12Sc3Zr5,04bc7b0994,Zr5Sc3(BCl6)2,"['B', 'Cl', 'Sc', 'Zr']",22,538.3231,3.202,m,Pm,6,monoclinic,-141.2763,-2.0,-0.0252,3D,,True,0.0,,-0.0252,-0.0246
7057,Br2In2K12Se8,04bcc35759,K6InSe4Br,"['K', 'Se', 'Br', 'In']",24,816.9736,3.0291,6mm,P6_3mc,186,hexagonal,-83.5089,-1.3933,-0.0139,intercalated ion,2.1313,True,0.0,,-0.0139,-0.0089
7067,Ho7O2Si6Tm3,04be300ab0,Ho7Tm3(Si3O)2,"['O', 'Si', 'Ho', 'Tm']",18,369.9808,8.3562,32,P312,149,trigonal,-112.2168,-1.348,-0.0188,3D,inf,True,0.0,,-0.0188,-0.0179
7068,Br2O8P2Sn4,04be4da753,Sn2PBrO4,"['O', 'P', 'Br', 'Sn']",16,315.4368,4.3409,mm2,Ama2,40,orthorhombic,-103.191,-2.0918,-0.0121,intercalated ion,2.2643,True,0.0,,-0.0121,-0.0065
7123,Ag2F8O4Re2,04c6bb9468,ReAg(OF2)2,"['O', 'F', 'Ag', 'Re']",16,286.2662,4.6645,-42m,P-42_1m,113,tetragonal,-99.7856,-2.1342,-0.025,2D,1.7293,True,0.0,,-0.025,-0.025
7144,Bi6Ga2O18Sb1,04c9d50c3f,Ga2Bi6SbO18,"['O', 'Ga', 'Sb', 'Bi']",27,374.3441,7.9982,3,P3,143,trigonal,-167.0602,-1.6471,-0.0061,3D,0.0014,True,0.0,,-0.0061,-0.0056
7164,F24Li2Na6Tc4,04ccc27e70,Na3LiTc2F12,"['Li', 'F', 'Na', 'Tc']",36,516.8397,3.2122,-42m,P-42_1c,114,tetragonal,-200.1897,-2.8089,-0.1098,intercalated ion,1.7338,True,0.0,,-0.1098,-0.0739
7228,Ag2O24P6V4,04d8e18e8a,V2Ag(PO4)3,"['O', 'P', 'V', 'Ag']",36,468.1489,3.5092,m,Cc,9,monoclinic,-281.8722,-2.4622,-0.021,3D,0.944,True,0.0,,-0.021,-0.021
7252,Cl30Os5Sb1,04dc6895bb,Sb(OsCl6)5,"['Cl', 'Sb', 'Os']",36,1167.4097,3.039,1,P1,1,triclinic,-149.9393,-0.9505,-0.1494,0D,,True,0.0,,-0.1494,-0.0693
7322,Bi1Cl2In2Tl3Y10,04e9234442,Y10Tl3In2BiCl2,"['Cl', 'Y', 'In', 'Tl', 'Bi']",18,488.2788,6.8415,m,Pm,6,monoclinic,-99.8256,-0.8325,-0.0456,3D,,False,0.0,,-0.0456,-0.0448
7340,F2Ge2Ir1Pm2Ru1,04ebf2c6d3,Pm2Ge2IrRuF2,"['F', 'Ge', 'Ru', 'Pm', 'Ir']",8,139.7309,9.1097,-42m,P-4m2,115,tetragonal,-55.736,-1.8816,-0.2264,3D,0.0197,False,0.0,,-0.2264,-0.1383
7389,As6O24Sn3W1,04f35c5278,Sn3As6WO24,"['O', 'As', 'Sn', 'W']",34,538.232,4.2374,3,R3,146,trigonal,-232.9926,-1.8029,-0.0235,3D,2.6427,False,0.0,,-0.0235,-0.0235
7400,Br8Os1Tc1Y8,04f55a8943,Y8TcOsBr8,"['Br', 'Y', 'Tc', 'Os']",18,533.3741,5.1017,2,C2,5,monoclinic,-113.3891,-1.4986,-0.0325,3D,0.6901,True,0.0,,-0.0325,-0.0316
7424,F20N1Pd3,04f97420be,Pd3NF20,"['N', 'F', 'Pd']",24,378.7017,3.1274,m,Pm,6,monoclinic,-91.1934,-1.212,-0.2334,intercalated molecule,0.0007,True,0.0,,-0.2334,-0.0457
7446,F10N1Ru1,04fd982ddb,RuNF10,"['N', 'F', 'Ru']",12,188.2613,2.6908,m,Cm,8,monoclinic,-53.94,-1.4345,-0.2381,0D,1.2453,True,0.0,,-0.2381,-0.0519
7463,Al1O16Ru3Sr8,05022fb607,Sr8AlRu3O16,"['O', 'Al', 'Sr', 'Ru']",28,388.209,5.5057,-42m,I-42m,121,tetragonal,-199.0807,-2.6725,-0.012,intercalated ion,0.0066,True,0.0,,-0.012,-0.0092
7468,F3S24Sn1,05036a57d4,Sn(S8F)3,"['F', 'S', 'Sn']",28,944.8972,1.6612,3m,R3m,160,trigonal,-129.9257,-0.7467,-0.3532,0D,,True,0.0,,-0.3532,-0.3531
7475,Br18Cs6In3Lu1,05046c5424,Cs6Lu(InBr6)3,"['Br', 'In', 'Cs', 'Lu']",28,1116.4208,4.0979,3m,P3m1,156,trigonal,-98.029,-1.8006,-0.0705,intercalated ion,2.4014,True,0.0,,-0.0705,-0.0593
7508,Cl6Gd3N2Y1,050c60c126,Gd3Y(NCl3)2,"['N', 'Cl', 'Y', 'Gd']",12,327.6603,4.0613,m,Cm,8,monoclinic,-106.31,-2.4825,-0.0532,2D,,True,-0.0,,-0.0532,-0.0008
7516,Br12C2Cs2Sm1Y5,050df1a25c,Cs2SmY5(CBr6)2,"['C', 'Br', 'Y', 'Cs', 'Sm']",22,708.1969,4.3227,1,P1,1,triclinic,-119.8145,-1.9489,-0.0589,intercalated ion,0.719,False,0.0,,-0.0589,-0.0226
7533,Br4Cl2Ga1Pa1,050fdb4815,PaGa(Br2Cl)2,"['Cl', 'Ga', 'Br', 'Pa']",8,324.9157,3.5329,1,P1,1,triclinic,-37.2005,-1.8016,-0.0345,intercalated ion,,False,0.0,,-0.0345,-0.033
7535,F26Pa6Rb2,050ffeba75,RbPa3F13,"['F', 'Rb', 'Pa']",34,524.2907,6.4963,mm2,Pmc2_1,26,orthorhombic,-246.2705,-4.0448,-2.2247,intercalated ion,,True,0.0,,-2.2247,-0.4807
7596,Ce1O18Pb1Ta6,05192bac37,CeTa6PbO18,"['O', 'Ce', 'Ta', 'Pb']",26,348.3784,8.2031,m,Pm,6,monoclinic,-256.888,-3.3474,-0.0586,3D,0.001,True,0.0,,-0.0586,-0.0584
7616,Cs10F18U2,051cc4a4bd,Cs5UF9,"['F', 'Cs', 'U']",30,715.8612,4.9805,mm2,Cmc2_1,36,orthorhombic,-164.9533,-3.3003,-0.0743,intercalated ion,,True,0.0,,-0.0743,-0.0025
7622,Nb3O22Sb1Sr12,051e9ec652,Sr12Nb3SbO22,"['O', 'Sr', 'Nb', 'Sb']",38,606.0607,4.9425,1,P1,1,triclinic,-283.2774,-3.1504,-0.0215,intercalated ion,3.3881,False,-0.0,,-0.0215,-0.0203
7627,Ac4F28Ge2Rh2,051fa04f7d,Ac2GeRhF14,"['F', 'Ge', 'Rh', 'Ac']",36,571.3882,5.205,2,P2_1,4,monoclinic,-212.4779,-3.2974,-0.0977,3D,,True,0.0,,-0.0977,-0.0428
7657,Ca1O22Pb1Ta8,05246b6ba0,CaTa8PbO22,"['O', 'Ca', 'Ta', 'Pb']",32,428.736,7.9277,32,P312,149,trigonal,-314.784,-3.2921,-0.0034,intercalated ion,2.9538,True,0.0,,-0.0034,-0.0032
7661,Ba3Gd1Lu3O9,0525819ac1,Ba3GdLu3O9,"['O', 'Ba', 'Gd', 'Lu']",16,268.8552,7.6471,3,R3,146,trigonal,-135.9155,-3.6242,-0.0101,intercalated ion,3.0261,True,0.0,,-0.0101,-0.0032
7676,Br12Hf2K1Tl3,0528db2a03,KHf2(TlBr4)3,"['K', 'Br', 'Hf', 'Tl']",18,596.7731,5.4762,222,C222,21,orthorhombic,-77.8717,-1.6733,-0.0552,intercalated ion,,True,0.0,,-0.0552,-0.0103
7714,Br2C2Gd2Tb1Th1,052edcda60,TbGd2Th(CBr)2,"['C', 'Br', 'Gd', 'Tb', 'Th']",8,175.4992,8.4143,3m,P3m1,156,trigonal,-71.4855,-1.1947,-0.141,3D,0.0002,True,0.0,,-0.141,-0.1242
7785,Be4Hg4O16P4,0538a2db00,BeHgPO4,"['Be', 'O', 'P', 'Hg']",28,359.278,5.6308,mm2,Pna2_1,33,orthorhombic,-183.6956,-2.3822,-0.0203,intercalated ion,0.0023,True,0.0,,-0.0203,-0.0203
7794,F18Os1Sb1Te2,0539fb6dea,SbTe2OsF18,"['F', 'Sb', 'Te', 'Os']",22,395.4372,3.8178,1,P1,1,triclinic,-109.1182,-2.4122,-0.0183,1D,1.4765,False,0.0,,-0.0183,-0.0177
7813,F36Se4Ta4,053c986133,TaSeF9,"['F', 'Se', 'Ta']",44,704.4102,4.0631,3,R3,146,trigonal,-258.3635,-2.9122,-0.0206,0D,,True,0.0,,-0.0206,-0.0204
7823,Ce2Li1O2P2Zn1,053e69f0f8,LiCe2Zn(PO)2,"['Li', 'O', 'P', 'Zn', 'Ce']",8,131.1781,5.6525,-42m,P-4m2,115,tetragonal,-52.6796,-2.1153,-0.0378,intercalated ion,0.0011,True,0.0,,-0.0378,-0.0114
7841,Ir2La8O24Ta2,05415f4fb9,La4TaIrO12,"['O', 'La', 'Ta', 'Ir']",36,550.2504,6.7646,2,P2_1,4,monoclinic,-313.5978,-3.1657,-0.0463,3D,0.0039,True,0.0,,-0.0463,-0.0429
7842,Bi6Ho2O24Ti6,05416586e1,HoTi3(BiO4)3,"['O', 'Ti', 'Ho', 'Bi']",38,495.5468,7.5561,m,Pc,7,monoclinic,-308.0701,-2.88,-0.0068,3D,2.4641,True,0.0,,-0.0068,-0.0049
7876,Nb7O12Ti1,0546f57009,TiNb7O12,"['O', 'Ti', 'Nb']",20,277.4806,5.3273,3,R3,146,trigonal,-193.8737,-2.7947,-0.0155,3D,0.013,False,0.0,,-0.0155,-0.0153
7918,Na3Nb12O24,054e897156,NaNb4O8,"['O', 'Na', 'Nb']",39,498.0795,5.227,m,Cm,8,monoclinic,-353.9458,-2.8208,-0.0195,intercalated ion,0.005,False,0.0,,-0.0195,-0.0195
7943,Br1C4Sm4Te1,05518eaef9,Sm4TeC4Br,"['C', 'Br', 'Te', 'Sm']",10,211.6408,6.7239,2,C2,5,monoclinic,-68.8787,-0.8317,-0.0693,3D,0.0097,True,0.0,,-0.0693,-0.029
8000,F8O2Tb1Y3,055d74de2a,TbY3(OF4)2,"['O', 'F', 'Y', 'Tb']",14,187.6748,5.394,1,P1,1,triclinic,-110.3538,-4.3666,-0.0124,3D,6.325,True,0.0,,-0.0124,-0.0066
8009,Br8O8Pb6Sr6,055ed47a3b,Sr3Pb3(BrO)4,"['O', 'Br', 'Sr', 'Pb']",28,778.0776,5.4125,mm2,Pmn2_1,31,orthorhombic,-146.6211,-2.1975,-0.0541,intercalated ion,2.9614,True,0.0,,-0.0541,-0.0317
8027,Ca9Ce1O1Si6,056115d958,Ca9CeSi6O,"['O', 'Si', 'Ca', 'Ce']",17,426.8764,2.6659,m,Cm,8,monoclinic,-75.5689,-0.8286,-0.0067,intercalated ion,0.0202,True,0.0,,-0.0067,-0.0034
8034,Ir3O24Tb4W1Y4,05635258e6,Tb4Y4Ir3WO24,"['O', 'Y', 'Tb', 'W', 'Ir']",36,485.7309,7.3015,1,P1,1,triclinic,-306.1645,-2.876,-0.0594,3D,0.2507,True,0.0,,-0.0594,-0.0349
8054,Bi6Lu1O14Sm1,05661c51a3,SmLu(Bi3O7)2,"['O', 'Sm', 'Lu', 'Bi']",22,338.7407,8.8395,1,P1,1,triclinic,-148.5301,-2.1218,-0.0177,3D,1.1727,True,0.0,,-0.0177,-0.0177
8066,F12Mo2Sr1,05681fd29d,SrMo2F12,"['F', 'Sr', 'Mo']",15,271.201,3.1073,1,P1,1,triclinic,-91.1484,-2.9887,-0.032,intercalated ion,2.1751,True,-0.0,,-0.032,-0.0319
8086,Bi1Hg1O2Pm2,056b927aa8,Pm2HgBiO2,"['O', 'Pm', 'Hg', 'Bi']",6,126.2361,9.6232,4mm,P4mm,99,tetragonal,-37.6981,-2.3512,-0.0436,3D,,False,0.0,,-0.0436,-0.0111
8087,Ho5Lu1O12Sc1Y1,056bf94389,YHo5LuScO12,"['O', 'Sc', 'Y', 'Ho', 'Lu']",20,289.434,7.6045,1,P1,1,triclinic,-180.2852,-4.0339,-0.0016,3D,4.2901,True,0.0,,-0.0016,-0.0016
8094,Ag3Cl18Tc3,056d74ea7c,TcAgCl6,"['Cl', 'Tc', 'Ag']",24,725.3215,2.8749,2,C2,5,monoclinic,-97.5455,-1.0288,-0.0674,2D,,False,0.0,,-0.0674,-0.0219
8141,Ba6O15Pd4Zn1,05773038fd,Ba6ZnPd4O15,"['O', 'Zn', 'Pd', 'Ba']",26,413.3734,6.2467,32,R32,155,trigonal,-160.4889,-2.0299,-0.1097,intercalated ion,,True,0.0,,-0.1097,-0.0179
8168,Cu2O24P8Rb2,057cf862e4,RbCu(PO3)4,"['O', 'P', 'Cu', 'Rb']",36,530.4702,2.9106,2,P2_1,4,monoclinic,-256.9901,-2.3548,-0.0126,intercalated ion,0.7002,True,0.0,,-0.0126,-0.0115
8219,Ca4O18Pa5Tb1,05862515ed,Ca4TbPa5O18,"['O', 'Ca', 'Tb', 'Pa']",28,408.7587,7.1596,1,P1,1,triclinic,-260.2888,-3.9641,-0.3755,intercalated ion,,True,0.0,,-0.3755,-0.2181
8222,Ho1O8Pd4Tb1,05879363a2,TbHo(PdO2)4,"['O', 'Pd', 'Tb', 'Ho']",14,170.7607,8.5334,-4,I-4,82,tetragonal,-97.508,-1.9991,-0.0725,3D,0.0222,True,0.0,,-0.0725,-0.0522
8285,As3O14P1Zr2,05972ee5e6,Zr2As3PO14,"['O', 'P', 'As', 'Zr']",20,335.0591,3.2817,1,P1,1,triclinic,-156.1918,-2.5217,-0.058,3D,3.6248,True,0.0,,-0.058,-0.0237
8300,Gd1Ho4Mo4O24Tm3,059a5395ab,GdHo4Tm3(MoO6)4,"['O', 'Mo', 'Gd', 'Ho', 'Tm']",36,461.1805,7.5308,2,P2,3,monoclinic,-323.1245,-3.1983,-0.0033,3D,,True,0.0,,-0.0033,-0.0033
8303,Ba4Ca1F1O7Sb1,059ab0f8ce,Ba4CaSbO7F,"['O', 'F', 'Ca', 'Sb', 'Ba']",14,249.2238,5.611,mm2,Amm2,38,orthorhombic,-92.4977,-3.01,-0.0407,intercalated ion,3.1343,True,0.0,,-0.0407,-0.0407
8340,Ge6O18Rb8Sr2,05a14a6ba9,Rb4Sr(GeO3)3,"['O', 'Ge', 'Rb', 'Sr']",34,627.9478,4.1856,mm2,Ama2,40,orthorhombic,-204.8913,-2.2608,-0.0016,intercalated ion,3.066,False,0.0,,-0.0016,-0.0016
8374,O12Os1Ru1Y5,05a6c7cac1,Y5OsRuO12,"['O', 'Y', 'Ru', 'Os']",19,255.4861,6.0304,2,C2,5,monoclinic,-171.8796,-3.1405,-0.0376,3D,0.0151,True,0.0,,-0.0377,-0.0361
8393,Ba2La1O9Ti3,05a9ae874d,Ba2LaTi3O9,"['O', 'Ti', 'Ba', 'La']",15,193.2384,6.0252,mm2,Cmm2,35,orthorhombic,-130.4409,-3.5633,-0.0128,intercalated ion,0.0008,True,0.0,,-0.0128,-0.0128
8435,F28Pr4Tc1Zr3,05b2e980a7,Pr4Zr3TcF28,"['F', 'Zr', 'Tc', 'Pr']",36,610.1224,3.9934,1,P1,1,triclinic,-252.6161,-3.9991,-0.0272,3D,1.8257,True,0.0,,-0.0272,-0.0271
8504,Br12Ho4Si2Sm3Tb1,05be5cd60e,TbSm3Ho4(SiBr6)2,"['Si', 'Br', 'Sm', 'Tb', 'Ho']",22,772.441,4.9116,m,Pm,6,monoclinic,-109.1615,-1.8885,-0.0533,3D,,True,-0.0,,-0.0533,-0.0431
8511,Br2In6La6Lu3Sm1,05bfeeaa0f,La6SmLu3(In3Br)2,"['Br', 'In', 'La', 'Sm', 'Lu']",18,543.1671,7.2069,32,P312,149,trigonal,-80.6333,-0.7195,-0.0086,3D,0.002,True,0.0,,-0.0086,-0.0082
8610,Br12Ho1Si2Tb4Tm3,05ccd5c8f8,Tb4HoTm3(SiBr6)2,"['Si', 'Br', 'Tb', 'Ho', 'Tm']",22,744.3109,5.1813,m,Pm,6,monoclinic,-108.4265,-1.8812,-0.0335,3D,0.0219,False,0.0,,-0.0335,-0.0072
8667,Lu1O13Pb4W3,05d7662ae4,LuPb4W3O13,"['O', 'Lu', 'W', 'Pb']",21,312.4691,9.3705,3m,R3m,160,trigonal,-168.9991,-2.2109,-0.0259,3D,0.2883,True,0.0,,-0.0259,-0.0252
8707,As2Eu6O12,05de1ba13a,Eu3AsO6,"['O', 'As', 'Eu']",20,326.0951,6.3837,mm2,Cmc2_1,36,orthorhombic,-189.4478,-2.9501,-0.155,3D,0.0003,True,0.0,,-0.155,-0.0148
8715,Br12Pt2Ru2Sm12,05df95784f,Sm6RuPtBr6,"['Br', 'Ru', 'Sm', 'Pt']",28,855.7507,6.5111,222,F222,22,orthorhombic,-151.0216,-1.5737,-0.0192,3D,0.002,True,0.0,,-0.0192,-0.0192
8725,Ag1Au4Ca1O8,05e061a191,CaAg(AuO2)4,"['O', 'Ca', 'Ag', 'Au']",14,191.2016,9.2389,-4,I-4,82,tetragonal,-70.9991,-0.963,-0.0022,intercalated ion,0.0062,True,0.0,,-0.0022,-0.0021
8726,F24Hg8Rb7,05e0653e7d,Rb7Hg8F24,"['F', 'Rb', 'Hg']",39,743.6447,5.9374,m,Cm,8,monoclinic,-139.9298,-2.1734,-0.023,intercalated ion,,True,0.0,,-0.023,-0.0133
8730,Br2In5Pb1Y10,05e15157b3,Y10In5PbBr2,"['Br', 'Y', 'In', 'Pb']",18,500.981,6.0662,mm2,Amm2,38,orthorhombic,-98.8847,-0.7486,-0.0186,3D,0.0025,True,0.0,,-0.0186,-0.0169
8764,Ca4La1O12Pr1V2,05e6c5ba9c,Ca4LaPrV2O12,"['O', 'Ca', 'V', 'La', 'Pr']",20,302.7687,4.0256,m,Cm,8,monoclinic,-160.5223,-3.262,-0.0218,intercalated ion,2.5631,True,0.0,,-0.0218,-0.0213
8773,Bi1F30Gd1Np6,05e7da8e7b,GdNp6BiF30,"['F', 'Gd', 'Bi', 'Np']",38,612.8637,6.3894,2,C2,5,monoclinic,-297.2603,-3.7959,-0.034,3D,,True,0.0,,-0.034,-0.0042
8836,Cl18Nb1Ta5Tb1,05f1ce1551,TbTa5NbCl18,"['Cl', 'Nb', 'Tb', 'Ta']",25,670.419,4.4453,1,P1,1,triclinic,-154.5608,-1.8905,-0.0105,intercalated ion,0.1236,True,0.0,,-0.0105,-0.0054
8952,In2Nb1O8Sb1,06044ef073,NbIn2SbO8,"['O', 'Nb', 'In', 'Sb']",12,151.2132,6.2847,2,P2,3,monoclinic,-86.8243,-2.2922,-0.0027,3D,2.2267,True,0.0,,-0.0027,-0.0027
8989,Bi2C6Na6O18,060a97739d,Na3Bi(CO3)3,"['C', 'O', 'Na', 'Bi']",32,423.4695,3.5917,mm2,Ama2,40,orthorhombic,-224.1002,-1.9988,-0.0503,intercalated ion,4.3126,True,0.0,,-0.0503,-0.0503
9028,O19Sm4Tm1U5,0610f460d1,Sm4TmU5O19,"['O', 'Sm', 'Tm', 'U']",29,404.734,9.2908,1,P1,1,triclinic,-286.672,-3.8915,-0.0557,3D,,True,0.0,,-0.0557,-0.0325
9036,Be1Br35,0611f9c218,BeBr35,"['Be', 'Br']",36,1662.5203,2.8023,1,P1,1,triclinic,-82.2904,-0.5905,-0.4738,0D,,True,0.0,,-0.4738,-0.4737
9119,Au8Br2Cl6Se8,061fa3800e,Au4Se4BrCl3,"['Cl', 'Se', 'Br', 'Au']",24,649.0052,6.601,m,Pc,7,monoclinic,-82.1825,-0.5691,-0.0559,1D,0.7787,True,0.0,,-0.0559,-0.042
9236,F9Li1,063439e629,LiF9,"['Li', 'F']",10,164.7742,1.7931,1,P1,1,triclinic,-28.7588,-0.9647,-0.3315,,,,0.0,,-0.3315,-0.3273
9255,Bi1F28Sb3Sn4,0636c7d6f0,Sn4BiSb3F28,"['F', 'Sn', 'Sb', 'Bi']",36,580.3043,4.5242,1,P1,1,triclinic,-184.695,-2.7461,-0.032,3D,,True,0.0,,-0.032,-0.0319
9265,F28Tc1Y4Zr3,06388a524f,Y4Zr3TcF28,"['F', 'Y', 'Zr', 'Tc']",36,561.6636,3.7229,1,P1,1,triclinic,-259.5609,-4.0047,-0.0264,3D,1.7861,True,-0.0,,-0.0264,-0.0262
9294,Be8Ge1O32P8Pb3,063ce98115,Be8GeP8Pb3O32,"['Be', 'O', 'P', 'Ge', 'Pb']",52,630.6274,4.0185,1,P1,1,triclinic,-390.7271,-2.7579,-0.0032,intercalated ion,,True,0.0,,-0.0042,-0.0042
9344,F1O8,0645f9b000,O8F,"['O', 'F']",9,138.0954,1.7675,1,P1,1,triclinic,-43.5021,-0.223,-0.14,0D,,True,0.0,,-0.14,-0.124
9345,Bi10La1O10Pr17,06460beec1,LaPr17(BiO)10,"['O', 'La', 'Pr', 'Bi']",38,1025.361,7.7478,1,P1,1,triclinic,-257.4432,-2.1803,-0.0226,3D,0.0006,True,0.0,,-0.0226,-0.0218
9364,Ac8Ag3Br1O20,0648c937fc,Ac8Ag3BrO20,"['O', 'Br', 'Ag', 'Ac']",32,498.7921,8.4543,4,P4,75,tetragonal,-223.7553,-2.5529,-0.112,3D,,True,0.0,,-0.112,-0.0732
9372,As1Cl2Pu1Sm1,064a198fe0,SmPuAsCl2,"['Cl', 'As', 'Sm', 'Pu']",5,147.3799,6.0863,3m,P3m1,156,trigonal,-37.155,-1.9625,-0.0536,2D,0.0187,True,0.0,,-0.0536,-0.0087
9380,F28La3Pr1Zr4,064b6d7fa0,La3PrZr4F28,"['F', 'Zr', 'La', 'Pr']",36,631.8491,3.8225,1,P1,1,triclinic,-260.0386,-4.2427,-0.0051,3D,6.1005,False,0.0,,-0.0051,-0.0037
9507,F28Ho1Sm3V4,066025c10c,Sm3HoV4F28,"['F', 'V', 'Sm', 'Ho']",36,528.5627,4.2466,1,P1,1,triclinic,-241.0031,-3.678,-0.0289,3D,1.9906,True,0.0,,-0.0289,-0.0286
9567,As1Ba1F12V1,066ae6d530,BaVAsF12,"['F', 'V', 'As', 'Ba']",15,272.007,2.9985,mm2,Pmm2,25,orthorhombic,-83.4283,-2.9886,-0.0531,intercalated ion,3.1674,False,0.0,,-0.0531,-0.0511
9612,As2Br8Ga2Hg6Se2,0672e626ff,GaHg3AsSeBr4,"['Ga', 'As', 'Se', 'Br', 'Hg']",20,679.2282,5.5984,6mm,P6_3mc,186,hexagonal,-53.0942,-0.7905,-0.0343,intercalated molecule,2.4148,True,0.0,,-0.0343,-0.0282
9711,Cl2Lu5Pb6Pr5,06831c9c37,Pr5Lu5(Pb3Cl)2,"['Cl', 'Pr', 'Lu', 'Pb']",18,509.9784,9.4214,mm2,Amm2,38,orthorhombic,-88.2622,-0.8767,-0.0377,3D,,False,0.0,,-0.0377,-0.0335
9769,Cl2O6Tc2,068db9cac0,TcClO3,"['O', 'Cl', 'Tc']",10,243.2156,2.4777,mm2,Cmc2_1,36,orthorhombic,-70.7847,-1.6679,-0.1129,0D,3.2167,True,0.0,,-0.1129,-0.1128
9800,F28Ru4Tb1Y3,06932be3f9,TbY3Ru4F28,"['F', 'Y', 'Ru', 'Tb']",36,533.1075,4.242,1,P1,1,triclinic,-226.6136,-3.11,-0.0352,3D,0.0002,False,0.0,,-0.0352,-0.031
9818,Ir1La4O24Pr4Te3,0696259cd1,La4Pr4Te3IrO24,"['O', 'Te', 'La', 'Pr', 'Ir']",36,547.5135,6.3031,1,P1,1,triclinic,-280.4644,-2.9049,-0.025,3D,,False,0.0,,-0.025,-0.0222
9897,Br10Pr1Rh1Sm5,06a85b67ba,PrSm5RhBr10,"['Br', 'Rh', 'Pr', 'Sm']",17,604.3087,4.9314,1,P1,1,triclinic,-84.8142,-1.9239,-0.008,3D,0.0053,True,0.0,,-0.008,-0.008
9934,Ba1F12Mo2,06ae887b5b,BaMo2F12,"['F', 'Mo', 'Ba']",15,265.9944,3.4784,1,P1,1,triclinic,-91.3185,-2.9847,-0.0417,intercalated ion,1.7723,True,0.0,,-0.0417,-0.0417
9987,F34Pd1Se1,06b8f79559,PdSeF34,"['F', 'Se', 'Pd']",36,693.188,1.9914,1,P1,1,triclinic,-105.7762,-0.8919,-0.3958,0D,,True,0.0,,-0.3958,-0.2743
10035,Br12Ca1Ir1La4Pr2,06c0965195,CaLa4Pr2IrBr12,"['Ca', 'Br', 'La', 'Pr', 'Ir']",20,759.2587,4.4366,1,P1,1,triclinic,-102.0924,-2.115,-0.0201,intercalated ion,0.0815,True,0.0,,-0.0201,-0.0171
10057,O48Pb9Sr3Te7W1Zn12,06c518f82f,Sr3Zn12Te7Pb9WO48,"['O', 'Zn', 'Sr', 'Te', 'W', 'Pb']",80,1106.8508,7.1375,1,P1,1,triclinic,-473.3665,-1.8413,-0.0107,3D,,True,0.0,,-0.0107,-0.0061
10062,Bi4Cl16Ga4Se4,06c5fea5e9,GaBiSeCl4,"['Cl', 'Ga', 'Se', 'Bi']",28,885.3665,3.7471,-4,I-4,82,tetragonal,-109.1063,-1.3526,-0.0322,0D,2.5001,True,0.0,,-0.0322,-0.0028
10068,F30Hf3Lu2Zr3,06c7213892,Lu2Hf3Zr3F30,"['F', 'Zr', 'Lu', 'Hf']",38,504.6718,5.6891,1,P1,1,triclinic,-280.7327,-4.1798,-0.0088,3D,,True,0.0,,-0.0088,-0.0088
10116,Ba3Lu1O9Sc3,06d07c5f58,Ba3LuSc3O9,"['O', 'Sc', 'Ba', 'Lu']",16,242.4605,5.9297,3,R3,146,trigonal,-131.6595,-3.6158,-0.0114,intercalated ion,3.4409,True,0.0,,-0.0114,-0.0021
10126,Br2N1Sm1Y1,06d1b91fc6,SmYBr2N,"['N', 'Br', 'Y', 'Sm']",5,126.6681,5.4152,3m,P3m1,156,trigonal,-32.727,-1.9863,-0.0151,2D,0.0406,True,0.0,,-0.0151,-0.0033
10131,As1Br10Cl1,06d2588ec7,AsBr10Cl,"['Cl', 'As', 'Br']",12,570.3223,2.6478,1,P1,1,triclinic,-31.0323,-0.6796,-0.3317,intercalated molecule,,False,0.0,,-0.3317,-0.2827
10161,Br2La2Pt1Si1,06d75eeca8,La2SiPtBr2,"['Si', 'Br', 'La', 'Pt']",6,184.3434,5.9523,3m,P3m1,156,trigonal,-35.1673,-1.7542,-0.0611,2D,0.1263,True,-0.0,,-0.0611,-0.061
10197,Ba8Ir3O20Tc1,06dc5c8c52,Ba8TcIr3O20,"['O', 'Tc', 'Ba', 'Ir']",32,505.0706,6.8821,m,Pm,6,monoclinic,-226.2468,-2.3456,-0.1719,intercalated ion,0.0078,True,-0.0,,-0.1719,-0.1105
10236,Ho1Lu6O24Tb1W4,06e408d900,TbHoLu6(WO6)4,"['O', 'Tb', 'Ho', 'Lu', 'W']",36,443.5956,9.3322,2,P2,3,monoclinic,-327.3781,-3.3459,-0.0064,3D,,True,0.0,,-0.0064,-0.0064
10289,F4O4Si3,06ef41538b,Si3(OF)4,"['O', 'F', 'Si']",11,183.6148,2.028,1,P1,1,triclinic,-80.7167,-3.3639,-0.0021,intercalated ion,6.0739,True,0.0,,-0.0021,-0.0021
10308,Bi1Cu4O8Sr1,06f178d76c,SrCu4BiO8,"['O', 'Cu', 'Sr', 'Bi']",14,169.6535,6.6438,-4,I-4,82,tetragonal,-82.022,-1.4616,-0.0865,intercalated ion,0.0015,True,0.0,,-0.0865,-0.0797
10397,K2Nb1O12W3,070321dc82,K2Nb(WO4)3,"['O', 'K', 'Nb', 'W']",18,290.4968,5.2281,2,C2,5,monoclinic,-154.2611,-2.4272,-0.0078,intercalated ion,2.012,True,0.0,,-0.0078,-0.0044
10425,F30Lu1Pu7,0706d1212b,LuPu7F30,"['F', 'Lu', 'Pu']",38,571.8505,7.1228,32,R32,155,trigonal,-310.1909,-3.9066,-0.018,3D,,True,0.0,,-0.018,-0.0108