Unnamed: 0,Composition,MaterialId,Reduced Formula,Elements,NSites,Volume,Density,Point Group,Space Group,Space Group Number,Crystal System,Corrected Energy,Formation Energy Per Atom,Decomposition Energy Per Atom,Dimensionality Cheon,Bandgap,Is Train,Decomposition Energy Per Atom All,Decomposition Energy Per Atom Relative,Decomposition Energy Per Atom MP,Decomposition Energy Per Atom MP OQMD
97941,B2Cl15Gd1Sm9,4153820c87,Sm9GdB2Cl15,"['B', 'Cl', 'Sm', 'Gd']",27,746.0946,4.5935,1,P1,1,triclinic,-155.1456,-2.1294,-0.0943,3D,,False,-0.0,,-0.0943,-0.0478
97964,Br10Hg8Tb2Te4,415675d565,TbHg4Te2Br5,"['Br', 'Te', 'Tb', 'Hg']",24,893.4919,6.0066,2,P2_1,4,monoclinic,-67.8392,-1.1333,-0.0246,3D,,True,0.0,,-0.0246,-0.0016
97983,Eu2Ho4O14Ta2,4159f834a9,EuHo2TaO7,"['O', 'Eu', 'Ho', 'Ta']",22,298.078,8.6322,222,C222_1,20,orthorhombic,-213.8503,-3.725,-0.0365,3D,0.0024,True,-0.0,,-0.0365,-0.0158
98012,Ag1Ba8Cu2Li1O12,415ef15184,Ba8LiCu2AgO12,"['Li', 'O', 'Cu', 'Ag', 'Ba']",24,436.2788,5.833,mm2,Amm2,38,orthorhombic,-143.851,-2.341,-0.0432,intercalated ion,1.1235,True,0.0,,-0.0432,-0.0395
98085,Ho1Ir2O14Pr2Tm3,4168c700f4,Pr2HoTm3(IrO7)2,"['O', 'Pr', 'Ho', 'Tm', 'Ir']",22,291.6987,8.8918,m,Pm,6,monoclinic,-183.1393,-3.1191,-0.0401,3D,0.0007,False,0.0,,-0.0401,-0.0312
98137,Cs8Ge4O16Zn4,4172b6463b,Cs2ZnGeO4,"['O', 'Zn', 'Ge', 'Cs']",32,652.308,4.764,2,Cmc2_1,36,orthorhombic,-173.6253,-1.9926,-0.0147,intercalated ion,2.8092,True,0.0,,-0.0147,-0.0147
98142,C2Cl2Th1U1,4172fc4ff9,ThU(CCl)2,"['C', 'Cl', 'Th', 'U']",6,133.39,7.0335,m,Cm,8,monoclinic,-48.5024,-1.2744,-0.0549,2D,,True,0.0,,-0.0549,-0.0016
98161,Br2Pr5Sm5Sn6,41757b5cdc,Pr5Sm5(Sn3Br)2,"['Br', 'Sn', 'Pr', 'Sm']",18,534.7755,7.23,mm2,Amm2,38,orthorhombic,-92.4052,-0.9765,-0.0263,3D,0.0014,False,0.0,,-0.0263,-0.0238
98223,Lu7O20Pr1Si4,417f7bb098,PrLu7(SiO5)4,"['O', 'Si', 'Pr', 'Lu']",32,424.6646,7.0306,1,P1,1,triclinic,-280.0988,-3.8441,-0.0034,3D,4.71,True,0.0,,-0.0034,-0.0014
98259,Cu1F36Th1,4184d0a87b,ThCuF36,"['F', 'Cu', 'Th']",38,705.5311,2.3054,1,P1,1,triclinic,-118.9219,-1.0157,-0.2805,intercalated ion,,True,0.0,,-0.2805,-0.2406
98268,Cu2Na8O11U2,418610a818,Na8U2Cu2O11,"['O', 'Na', 'Cu', 'U']",23,315.3823,5.0707,1,P1,1,triclinic,-151.9755,-2.4429,-0.0213,intercalated ion,0.0007,True,0.0,,-0.0213,-0.0206
98270,F5O8,41864dcca6,O8F5,"['O', 'F']",13,234.7992,1.577,1,P1,1,triclinic,-54.0586,-0.3783,-0.091,0D,,True,-0.0,,-0.091,-0.0705
98307,Br6Na1Np1Sn1,418d569546,NaNpSnBr6,"['Na', 'Br', 'Sn', 'Np']",9,335.2579,4.2503,3,R3,146,trigonal,-42.5225,-1.6018,-0.0106,intercalated ion,,False,0.0,,-0.0106,-0.0054
98319,F28Pr1Tb3Zr4,418ed9d235,Tb3PrZr4F28,"['F', 'Zr', 'Pr', 'Tb']",36,587.178,4.2831,1,P1,1,triclinic,-258.787,-4.2331,-0.004,3D,6.0155,True,0.0,,-0.004,-0.0026
98349,Gd4Nb1O12Tb2,4192ddb081,Tb2Gd4NbO12,"['O', 'Nb', 'Gd', 'Tb']",19,270.0999,7.5726,1,P1,1,triclinic,-205.7336,-3.7202,-0.0186,3D,0.0043,True,0.0,,-0.0186,-0.011
98366,Br3La1S24,41953ae782,La(S8Br)3,"['S', 'Br', 'La']",28,899.583,2.1194,3m,R3m,160,trigonal,-130.282,-0.7557,-0.4095,0D,,True,0.0,,-0.4095,-0.4045
98368,Bi3F28Rh4Y1,419567a350,YBi3Rh4F28,"['F', 'Y', 'Rh', 'Bi']",36,545.3563,5.0527,1,P1,1,triclinic,-188.442,-2.4257,-0.0389,3D,0.0012,False,0.0,,-0.0389,-0.036
98374,F1Pr16Si15Sm4,419672d912,Pr16Sm4Si15F,"['F', 'Si', 'Pr', 'Sm']",36,955.5153,5.7284,1,P1,1,triclinic,-206.5856,-0.7757,-0.0018,3D,,False,-0.0,,-0.0018,-0.0015
98426,Li10Mg2O48Pr12Ta1W7,419f6c1bb2,Li10Pr12Mg2TaW7O48,"['Li', 'O', 'Mg', 'Pr', 'Ta', 'W']",80,1023.5511,6.5619,1,P1,1,triclinic,-662.363,-3.035,-0.0361,intercalated ion,,True,-0.0,,-0.0361,-0.0326
98625,Ac1La7Np4O24,41c30a42a0,AcLa7Np4O24,"['O', 'La', 'Ac', 'Np']",36,587.4568,7.1552,1,P1,1,triclinic,-344.2071,-3.7498,-0.2652,3D,,True,0.0,,-0.2652,-0.2296
98658,Br6Cu1Os1,41c7f8bfdd,CuOsBr6,"['Cu', 'Br', 'Os']",8,236.7449,5.1427,2,C2,5,monoclinic,-29.9619,-0.6017,-0.0169,2D,,True,0.0,,-0.0169,-0.0147
98704,C2Ce1Cl10Sm5,41d0908f96,CeSm5(CCl5)2,"['C', 'Cl', 'Ce', 'Sm']",18,517.7689,4.0745,1,P1,1,triclinic,-105.6477,-2.1768,-0.1347,3D,,True,0.0,,-0.1347,-0.0193
98714,O28Pu4Tc4,41d22d48d6,PuTcO7,"['O', 'Tc', 'Pu']",36,633.8366,4.7576,222,P2_12_12_1,19,orthorhombic,-318.4741,-2.2616,-0.1448,3D,0.6609,False,0.0,,-0.1448,-0.1424
98734,Ag2Nb2O14Se4,41d6990544,NbAgSe2O7,"['O', 'Se', 'Nb', 'Ag']",22,339.6693,4.6021,mm2,Cmc2_1,36,orthorhombic,-146.3633,-1.6927,-0.0143,2D,1.7482,True,0.0,,-0.0143,-0.0138
98761,Ag4F24K4Sn4,41db9a0b71,KAgSnF6,"['F', 'K', 'Ag', 'Sn']",36,655.6104,3.8465,mm2,Pna2_1,33,orthorhombic,-171.3391,-2.6015,-0.0623,intercalated ion,2.0991,True,0.0,,-0.0623,-0.0621
98802,Gd1O14Ta2Tb2Y3,41e19f0a61,Tb2GdY3Ta2O14,"['O', 'Y', 'Gd', 'Tb', 'Ta']",22,303.0642,7.2747,1,P1,1,triclinic,-220.2886,-3.8435,-0.0031,3D,3.1392,True,0.0,,-0.0031,-0.0026
98805,Mg2O20P4Ti1V3,41e1f7dfb1,Mg2TiV3(PO5)4,"['O', 'Mg', 'P', 'Ti', 'V']",30,353.4895,3.2563,1,P1,1,triclinic,-243.7913,-2.8277,-0.0004,3D,1.7967,False,0.0,,-0.0004,-0.0002
98813,As4La4O4Se8,41e31e028c,LaAsSe2O,"['O', 'As', 'Se', 'La']",20,493.9985,5.2135,mm2,Pca2_1,29,orthorhombic,-125.4458,-1.9653,-0.0659,2D,1.1975,True,0.0,,-0.0659,-0.005
98873,Ba1F8,41efbc7b60,BaF8,"['F', 'Ba']",9,176.5544,2.7211,1,P1,1,triclinic,-32.2789,-1.6742,-0.2542,intercalated ion,2.337,True,-0.0,,-0.2542,-0.1883
98875,Ho5Np1O12Ta1,41f0163f96,Ho5NpTaO12,"['O', 'Ho', 'Ta', 'Np']",19,260.5545,9.1428,1,P1,1,triclinic,-180.812,-3.8799,-0.0052,3D,inf,True,0.0,,-0.0052,-0.0052
98893,Br12La1Na1Pr2Ru1Tb3,41f2ae3873,NaLaTb3Pr2RuBr12,"['Na', 'Br', 'Ru', 'La', 'Pr', 'Tb']",20,704.1432,4.6703,1,P1,1,triclinic,-98.3521,-1.9856,-0.019,intercalated ion,,True,-0.0,,-0.019,-0.0174
98894,Bi3O22Ru1Sr12,41f2af3791,Sr12Bi3RuO22,"['O', 'Sr', 'Ru', 'Bi']",38,632.0723,5.5996,1,P1,1,triclinic,-247.8997,-2.5744,-0.0204,intercalated ion,,True,0.0,,-0.0204,-0.0174
98940,O4Pt3Rh5Zr16,41fa79170c,Zr16Pt3Rh5O4,"['O', 'Zr', 'Rh', 'Pt']",28,494.532,8.8087,m,Cm,8,monoclinic,-250.9459,-1.4056,-0.032,3D,,True,0.0,,-0.032,-0.0062
98956,F5Nb4O7,41fd153897,Nb4O7F5,"['O', 'F', 'Nb']",16,256.6305,3.7439,2,C2,5,monoclinic,-135.947,-3.2093,-0.0432,3D,0.0033,False,0.0,,-0.0432,-0.0299
98994,Br2C4Gd2Tb2,4203924a5a,TbGdC2Br,"['C', 'Br', 'Gd', 'Tb']",10,195.5392,7.1351,2,C2,5,monoclinic,-86.7248,-0.9123,-0.0149,3D,0.0012,True,-0.0,,-0.0149,-0.0102
99005,F34I1S1,4205737264,SIF34,"['F', 'S', 'I']",36,692.7241,1.9295,1,P1,1,triclinic,-108.0095,-1.0377,-0.2519,0D,,True,0.0,,-0.2519,-0.2514
99018,O13Os1Pb2Ru3Tl2,4207024344,Tl2OsRu3Pb2O13,"['O', 'Ru', 'Os', 'Tl', 'Pb']",21,282.0631,8.9755,m,Cm,8,monoclinic,-146.0124,-1.4519,-0.0278,3D,0.0016,True,0.0,,-0.0278,-0.0253
99024,Ag2Hf4O24P6,4208bf7d40,Hf2Ag(PO4)3,"['O', 'P', 'Ag', 'Hf']",36,524.5907,4.7466,2,C2,5,monoclinic,-306.9535,-3.0619,-0.0375,3D,3.8375,False,0.0,,-0.0375,-0.0305
99064,F18Na6Se3,420edbfcda,Na2SeF6,"['F', 'Na', 'Se']",27,412.9426,2.8824,32,P321,150,trigonal,-120.7255,-2.5147,-0.057,intercalated ion,4.4961,True,0.0,,-0.057,-0.0562
99135,Cl1F24N7,421a90f5b9,N7ClF24,"['N', 'F', 'Cl']",32,592.9402,1.6508,1,P1,1,triclinic,-132.4904,-0.8253,-0.4247,0D,,True,0.0,,-0.4247,-0.0054
99156,Al1O1Si5Zr10,421c74a8f4,Zr10AlSi5O,"['O', 'Al', 'Si', 'Zr']",17,312.203,5.8275,m,Cm,8,monoclinic,-139.2758,-1.0576,-0.0201,3D,0.011,False,0.0,,-0.0201,-0.0176
99272,Br3Cu1S24,422fb64954,Cu(S8Br)3,"['S', 'Cu', 'Br']",28,936.069,1.9031,3m,R3m,160,trigonal,-121.9413,-0.4877,-0.3743,0D,,True,0.0,,-0.3743,-0.3083
99286,Al20Ba2O34Zn2,423147a8d5,BaAl10ZnO17,"['O', 'Al', 'Zn', 'Ba']",58,640.4125,3.8611,6mm,P6_3mc,186,hexagonal,-443.8858,-3.3515,-0.006,intercalated ion,,True,0.0,,-0.006,-0.0059
99349,B2C2Cl12Sm12,423ba4d090,Sm6BCCl6,"['B', 'C', 'Cl', 'Sm']",28,678.9561,5.565,222,F222,22,orthorhombic,-159.6525,-1.7512,-0.1407,3D,0.0089,True,-0.0,,-0.1407,-0.0222
99351,F28Ho3Lu1Rh4,423bf13380,Ho3LuRh4F28,"['F', 'Rh', 'Ho', 'Lu']",36,509.6254,5.2568,1,P1,1,triclinic,-208.9162,-2.9908,-0.0389,3D,0.0023,True,0.0,,-0.0389,-0.0295
99421,Ba4O24Ti1U4V3,424b6c2850,Ba4U4TiV3O24,"['O', 'Ti', 'V', 'Ba', 'U']",36,568.7776,6.0903,1,P1,1,triclinic,-328.4887,-3.3819,-0.0239,intercalated ion,0.9468,True,0.0,,-0.0239,-0.0218
99460,F36K5O16P4Rb11Ti8,4253993334,K5Rb11Ti8P4(O4F9)4,"['O', 'F', 'P', 'K', 'Ti', 'Rb']",80,1306.2725,3.2828,1,P1,1,triclinic,-516.9619,-3.3478,-0.0189,intercalated ion,,True,-0.0,,-0.0189,-0.0038
99469,Bi7O22Os4Pr1,4254eaa28b,PrBi7(Os2O11)2,"['O', 'Pr', 'Os', 'Bi']",34,491.2221,9.1835,1,P1,1,triclinic,-245.9212,-1.769,-0.0573,3D,0.0052,True,0.0,,-0.0573,-0.0483
99473,Br2In6La8Lu1Tm1,42556bdd87,La8TmLu(In3Br)2,"['Br', 'In', 'La', 'Tm', 'Lu']",18,556.7357,6.8716,32,P312,149,trigonal,-81.3869,-0.7288,-0.0093,3D,0.0061,False,0.0,,-0.0093,-0.0089
99491,Ga1O12Ru1Tb5,42597e7beb,Tb5GaRuO12,"['O', 'Ga', 'Ru', 'Tb']",19,256.1543,7.503,2,C2,5,monoclinic,-156.0938,-3.2234,-0.0075,3D,0.0015,True,0.0,,-0.0075,-0.0041
99566,Ba2Cl2O8Re2,4268832ee3,BaReClO4,"['O', 'Cl', 'Ba', 'Re']",14,276.1506,5.087,mm2,Pmn2_1,31,orthorhombic,-108.7815,-2.6267,-0.1385,intercalated ion,3.4164,False,-0.0,,-0.1385,-0.0089
99574,Br18Ir2Rb6Sc1V1,426a47965d,Rb6ScV(IrBr9)2,"['Sc', 'V', 'Br', 'Rb', 'Ir']",28,962.5359,4.1946,3m,P3m1,156,trigonal,-113.0011,-1.5914,-0.0107,intercalated ion,0.3027,True,0.0,,-0.0107,-0.0105
99580,Ce2Ho4O14Ta2,426bbfdf6b,CeHo2TaO7,"['O', 'Ce', 'Ho', 'Ta']",22,303.1478,8.358,222,C222_1,20,orthorhombic,-207.8165,-3.847,-0.0138,3D,0.0034,False,0.0,,-0.0138,-0.003
99628,Ca1F37,42729d64cd,CaF37,"['F', 'Ca']",38,645.3567,1.9118,1,P1,1,triclinic,-98.2287,-0.671,-0.3375,intercalated ion,,True,0.0,,-0.3375,-0.3375
99644,Al4O20Tb1Ti4Y3,4275efd8a1,TbY3Ti4Al4O20,"['O', 'Al', 'Ti', 'Y', 'Tb']",32,360.7283,4.8106,m,Pm,6,monoclinic,-287.4128,-3.683,-0.0149,3D,3.3678,True,0.0,,-0.0149,-0.0138
99656,Cl3S24Se1,42773c440b,Se(S8Cl)3,"['S', 'Cl', 'Se']",28,1031.6099,1.537,3m,R3m,160,trigonal,-122.8943,-0.5206,-0.3005,0D,,True,0.0,,-0.3005,-0.2996
99663,As2Na2O26P8,42783a8ba7,NaAsP4O13,"['O', 'Na', 'P', 'As']",38,575.7339,2.4793,1,P1,1,triclinic,-274.0131,-2.3707,-0.0154,intercalated ion,,True,0.0,,-0.0154,-0.0154
99669,B4Li12O56P16Rb1Tl7,4278ea3ccc,RbLi12Tl7B4(P2O7)8,"['Li', 'B', 'O', 'P', 'Rb', 'Tl']",96,1252.061,4.0241,2,C2,5,monoclinic,-679.6265,-2.5916,-0.0148,2D,,False,0.0,,-0.0148,-0.0101
99694,Cl18Nb1Ta5Zr1,427e4db055,ZrTa5NbCl18,"['Cl', 'Zr', 'Nb', 'Ta']",25,658.9158,4.3523,1,P1,1,triclinic,-156.469,-1.8103,-0.0064,intercalated ion,0.5724,True,0.0,,-0.0064,-0.0045
99709,O14Os1P4Te1,4280da1cd2,TeP4OsO14,"['O', 'P', 'Te', 'Os']",20,285.1919,3.8762,1,P1,1,triclinic,-149.6931,-2.2199,-0.0479,3D,,True,0.0,,-0.0479,-0.0477
99826,F60Sb12Sr4,4294b22807,SrSb3F15,"['F', 'Sr', 'Sb']",76,1528.7153,3.206,222,P2_12_12_1,19,orthorhombic,-396.2263,-2.9636,-0.0814,intercalated ion,,True,0.0,,-0.0814,-0.0402
99858,Au1Cl3F20,42999eb0fd,AuCl3F20,"['F', 'Cl', 'Au']",24,405.2851,2.7996,1,P1,1,triclinic,-71.7332,-1.0285,-0.0212,0D,,False,0.0,,-0.0212,-0.0104
99925,F28Pb4Sm1Tm3,42a3dcad8c,SmTm3Pb4F28,"['F', 'Sm', 'Tm', 'Pb']",36,592.6014,5.6544,1,P1,1,triclinic,-203.3307,-3.2448,-0.1548,3D,,True,0.0,,-0.1548,-0.0291
99974,Cs2O24Ru6Se4,42ac236898,CsRu3(SeO6)2,"['O', 'Se', 'Ru', 'Cs']",36,576.3616,4.5292,6mm,P6_3mc,186,hexagonal,-241.284,-1.4198,-0.0075,intercalated ion,0.0012,True,0.0,,-0.0075,-0.0048
100036,Br18U1V2Zr1,42b861a116,ZrU(VBr9)2,"['V', 'Br', 'Zr', 'U']",22,879.9145,3.5279,1,P1,1,triclinic,-101.3771,-1.5412,-0.2421,0D,,True,0.0,,-0.2421,-0.0734
100055,Cl6Hg1Ir1,42bb99432b,HgIrCl6,"['Cl', 'Ir', 'Hg']",8,238.0672,4.2236,2,C2,5,monoclinic,-27.9118,-0.9598,-0.1016,2D,,True,0.0,,-0.1016,-0.0241
100066,O13Os3Pb1Sc1Tl3,42bd14c889,ScTl3Os3PbO13,"['O', 'Sc', 'Os', 'Tl', 'Pb']",21,293.7478,9.2934,m,Cm,8,monoclinic,-151.0557,-1.7105,-0.0202,3D,0.0013,True,-0.0,,-0.0202,-0.0201
100148,F14Pb2Tm2,42cc07f97b,TmPbF7,"['F', 'Tm', 'Pb']",18,283.7729,5.9584,2,P2_1,4,monoclinic,-101.6026,-3.248,-0.194,3D,,True,0.0,,-0.194,-0.0265
100202,Ag1O8Re1Ru1,42d624985c,ReAgRuO8,"['O', 'Ru', 'Ag', 'Re']",11,220.2792,3.9436,3,P3,143,trigonal,-80.4438,-1.4826,-0.0119,2D,0.9423,True,0.0,,-0.0119,-0.0119
100235,Cs8O16Ti4Zn4,42dc1c8e98,Cs2TiZnO4,"['O', 'Ti', 'Zn', 'Cs']",32,652.308,4.5117,2,Cmc2_1,36,orthorhombic,-202.6401,-2.4903,-0.0257,intercalated ion,,True,0.0,,-0.0257,-0.0219
100237,Cl18K1La1Nb6,42dc935f06,KLa(NbCl3)6,"['Cl', 'K', 'Nb', 'La']",26,694.274,3.2853,3,R3,146,trigonal,-149.984,-1.9252,-0.0063,intercalated ion,1.0619,False,0.0,,-0.0063,-0.0063
100240,O24P6Ta3Tb1,42dceb7fe0,TbTa3(PO4)6,"['O', 'P', 'Tb', 'Ta']",34,518.1514,4.0751,3,R3,146,trigonal,-296.4217,-3.0877,-0.0143,3D,3.6671,True,0.0,,-0.0143,-0.0143
100268,O24Se2Tc4Th2,42e052e5b8,ThTc2SeO12,"['O', 'Se', 'Tc', 'Th']",32,523.309,4.436,m,Pm,6,monoclinic,-250.6149,-2.1438,-0.0489,3D,,True,0.0,,-0.0489,-0.0485
100390,As2Br12Ga2Pr12,42f5e8f347,Pr6GaAsBr6,"['Ga', 'As', 'Br', 'Pr']",28,902.0726,5.4102,222,F222,22,orthorhombic,-140.5462,-1.7199,-0.0451,3D,0.0022,True,0.0,,-0.0451,-0.0145
100406,Bi4F28Pb1Pt3,42f8d198e9,Bi4Pt3PbF28,"['F', 'Pt', 'Pb', 'Bi']",36,567.9811,6.3159,1,P1,1,triclinic,-172.2514,-2.2568,-0.0551,3D,,True,0.0,,-0.0551,-0.05
100428,Lu3O24Pr2Tm3W4,42fcc9ad9b,Pr2Tm3Lu3(WO6)4,"['O', 'Pr', 'Tm', 'Lu', 'W']",36,462.1832,8.7408,1,P1,1,triclinic,-326.6754,-3.3205,-0.0149,3D,3.5806,True,0.0,,-0.0149,-0.0149
100444,F24Ga4In4Sr4,42ffe7e12b,SrInGaF6,"['F', 'Ga', 'Sr', 'In']",36,605.0057,4.2394,222,P2_12_12_1,19,orthorhombic,-189.2677,-3.1532,-0.0137,intercalated ion,2.2597,True,0.0,,-0.0137,-0.0046
100456,Gd2La2O10Os2,4302229efe,LaGdOsO5,"['O', 'La', 'Gd', 'Os']",16,233.9035,8.0418,m,Cm,8,monoclinic,-158.4359,-3.0298,-0.029,3D,0.1646,True,0.0,,-0.029,-0.0248
100495,F24Hg6Nb2Sb2,4308825b38,NbHg3SbF12,"['F', 'Nb', 'Sb', 'Hg']",34,673.8749,5.1472,2,P2_1,4,monoclinic,-162.1044,-2.5278,-0.0594,0D,,True,0.0,,-0.0594,-0.0594
100604,B2Br12Sc3Th5,431cc10898,Th5Sc3(BBr6)2,"['B', 'Sc', 'Br', 'Th']",22,738.4405,5.117,m,Pm,6,monoclinic,-126.2923,-1.692,-0.0846,1D,0.0137,True,0.0,,-0.0846,-0.0435
100606,Ba6O15Rh4Sr1,431d00907f,Ba6SrRh4O15,"['O', 'Sr', 'Rh', 'Ba']",26,430.7458,6.0262,32,R32,155,trigonal,-175.6185,-2.2592,-0.0178,intercalated ion,,True,0.0,,-0.0178,-0.0119
100630,Mo1O12Pr5Tc1,43209c1ff7,Pr5TcMoO12,"['O', 'Mo', 'Tc', 'Pr']",19,288.9245,6.2673,2,C2,5,monoclinic,-165.4848,-3.2104,-0.0453,3D,0.8347,True,0.0,,-0.0453,-0.0437
100635,Ba4Ca1F28Ga4Sr3,4321ffc2ea,Ba4Sr3CaGa4F28,"['F', 'Ca', 'Ga', 'Sr', 'Ba']",40,620.3609,4.4517,2,P2,3,monoclinic,-229.8528,-3.7367,-0.0009,,5.799,,0.0,,-0.0009,-0.0009
100738,B2Cl15Pr9Tb1,43329cbb5d,TbPr9B2Cl15,"['B', 'Cl', 'Pr', 'Tb']",27,804.9707,4.0855,1,P1,1,triclinic,-146.594,-2.1424,-0.0347,3D,0.0016,True,0.0,,-0.0347,-0.0314
100766,Br24Cu2I6,433653ad58,Cu(IBr4)3,"['Cu', 'Br', 'I']",32,1362.6348,3.4197,2,P2_1,4,monoclinic,-74.2987,-0.5522,-0.2594,0D,,True,0.0,,-0.2594,-0.0549
100873,Au4Br24La3Sm1,4348ca6e09,La3Sm(AuBr6)4,"['Br', 'La', 'Sm', 'Au']",32,1202.1873,4.5204,1,P1,1,triclinic,-119.911,-1.5001,-0.0252,3D,1.1993,True,0.0,,-0.0252,-0.0252
100875,Br12Eu1Li1U2,43490ad1c5,LiEu(UBr6)2,"['Li', 'Br', 'Eu', 'U']",16,660.8161,4.005,2,C2,5,monoclinic,-85.5027,-1.942,-0.0746,intercalated ion,,True,0.0,,-0.0746,-0.0703
100905,Ga2O12Sn2W2,434fd48bee,GaSnWO6,"['O', 'Ga', 'Sn', 'W']",18,209.445,7.4251,4mm,P4_2nm,102,tetragonal,-138.515,-2.1749,-0.0162,3D,2.5508,True,0.0,,-0.0162,-0.0101
101010,Ba6O18Te2Ti2Zn2,43614aa88f,Ba3TiZnTeO9,"['O', 'Ti', 'Zn', 'Te', 'Ba']",30,435.456,6.0773,6mm,P6_3mc,186,hexagonal,-207.8608,-2.7562,-0.0132,intercalated ion,2.231,True,0.0,,-0.0132,-0.0132
101043,Br12Mo1Os1Zr1,43672e9dbf,ZrMoOsBr12,"['Br', 'Zr', 'Mo', 'Os']",15,593.0799,3.7413,m,Cm,8,monoclinic,-67.2363,-1.1315,-0.0939,0D,0.4282,True,0.0,,-0.0939,-0.0188
101130,Br2O4Sr3Te1,43745c28de,Sr3Te(BrO2)2,"['O', 'Br', 'Sr', 'Te']",10,223.8529,4.5566,mm2,Amm2,38,orthorhombic,-57.4959,-2.6218,-0.0333,intercalated ion,3.3797,True,0.0,,-0.0333,-0.0267
101132,Ho3Lu1O12Re2Tm1,43748d7ad8,Ho3TmLu(ReO6)2,"['O', 'Ho', 'Tm', 'Lu', 'Re']",19,247.0627,9.4304,m,Cm,8,monoclinic,-171.2899,-3.3832,-0.0017,3D,0.0103,True,0.0,,-0.0017,-0.0017
101191,Bi2O16Pr2Te3W1,43812da512,Pr2Bi2Te3WO16,"['O', 'Te', 'Pr', 'W', 'Bi']",24,352.1374,7.1791,1,P1,1,triclinic,-172.1575,-2.2192,-0.0073,3D,2.2248,True,0.0,,-0.0073,-0.0072
101212,K4O20Se4V4,4384a2e716,KVSeO5,"['O', 'K', 'V', 'Se']",32,560.585,2.9503,2,P2_1,4,monoclinic,-216.8596,-1.9731,-0.0067,intercalated ion,3.024,True,0.0,,-0.0067,-0.0064
101242,Au6F14O2,4388e44402,Au3OF7,"['O', 'F', 'Au']",22,417.5821,5.8844,m,Cc,9,monoclinic,-82.5196,-1.1918,-0.0018,3D,1.0513,True,-0.0,,-0.0018,-0.0018
101261,Hf16O4Pt7Ti1,438c434b93,Hf16TiPt7O4,"['O', 'Ti', 'Hf', 'Pt']",28,483.1986,14.8916,3m,R3m,160,trigonal,-270.8402,-1.4765,-0.0373,3D,0.0005,True,0.0,,-0.0373,-0.0225
101308,B2Br34Cs8Hf3Zr9,43945b7b6d,Cs8Hf3Zr9(BBr17)2,"['B', 'Br', 'Zr', 'Cs', 'Hf']",56,1963.0056,4.3633,m,Cm,8,monoclinic,-287.8746,-1.8731,-0.015,intercalated ion,,True,0.0,,-0.015,-0.0116
101349,Nb1O16Pb4Ru3,439b8a5752,NbRu3(PbO4)4,"['O', 'Nb', 'Ru', 'Pb']",24,351.9653,6.9868,1,P1,1,triclinic,-172.0975,-1.6731,-0.0155,3D,0.0009,True,0.0,,-0.0155,-0.0155
101383,Br18Cs5Ir1Rb1V3,43a01cc741,Cs5RbV3IrBr18,"['V', 'Br', 'Rb', 'Cs', 'Ir']",28,1003.0063,4.194,3m,P3m1,156,trigonal,-115.4119,-1.5857,-0.0837,intercalated ion,0.005,True,-0.0,,-0.0837,-0.0096
101395,Ba6Ir2O18Ti2Zn2,43a1ee50c5,Ba3TiZnIrO9,"['O', 'Ti', 'Zn', 'Ba', 'Ir']",30,428.9733,6.6694,6mm,P6_3mc,186,hexagonal,-214.9174,-2.6118,-0.0541,intercalated ion,0.3581,True,0.0,,-0.0541,-0.0159
101400,F34I1Te1,43a3957cac,TeIF34,"['F', 'Te', 'I']",36,722.5347,2.0694,1,P1,1,triclinic,-108.956,-1.0916,-0.2507,0D,,True,0.0,,-0.2507,-0.2503
101416,F2Gd1O24Se8Sm5,43a5bb115f,Sm5GdSe8(O12F)2,"['O', 'F', 'Se', 'Sm', 'Gd']",40,689.2956,4.7282,m,Cm,8,monoclinic,-286.8442,-2.4658,-0.0201,3D,2.9596,True,-0.0,,-0.0201,-0.0046
101429,Br18Nb6Rb1Y1,43a7f0c56b,RbY(NbBr3)6,"['Br', 'Rb', 'Y', 'Nb']",26,792.5201,4.5469,3,R3,146,trigonal,-136.8855,-1.5141,-0.0167,intercalated ion,1.0954,True,-0.0,,-0.0167,-0.0166
101574,Ba4Cs4In3O48P12Sc5,43c1e9fbc4,Cs4Ba4Sc5In3(PO4)12,"['O', 'P', 'Sc', 'In', 'Cs', 'Ba']",76,1132.3177,4.0913,1,P1,1,triclinic,-586.2339,-3.0605,-0.0221,intercalated ion,,True,0.0,,-0.0221,-0.0221
101592,Au1Br1F10,43c4b41de8,AuBrF10,"['F', 'Br', 'Au']",12,202.8094,3.8225,m,Cm,8,monoclinic,-38.8584,-1.2361,-0.0063,1D,1.0891,True,0.0,,-0.0063,-0.0053
101627,Eu2F22Nb1W3,43cd5f4407,Eu2NbW3F22,"['F', 'Nb', 'Eu', 'W']",28,440.3138,5.1527,m,Cm,8,monoclinic,-202.9244,-3.2611,-0.1446,3D,,True,0.0,,-0.1446,-0.1286
101634,O20Tm1V4Y7,43ce7c3506,Y7TmV4O20,"['O', 'V', 'Y', 'Tm']",32,437.0137,4.9968,m,Pm,6,monoclinic,-296.2647,-3.4759,-0.0049,3D,1.8729,True,0.0,,-0.0049,-0.0049
101677,Br24Hf3Li7Na1U1,43d4f4655e,NaLi7Hf3UBr24,"['Li', 'Na', 'Br', 'Hf', 'U']",36,1116.9773,4.1072,3,P3,143,trigonal,-161.57,-1.8454,-0.0249,intercalated ion,inf,False,0.0,,-0.0249,-0.0079
101907,Cl2Pb6Pr9Tm1,43f67145de,Pr9Tm(Pb3Cl)2,"['Cl', 'Pr', 'Tm', 'Pb']",18,541.6525,8.4344,32,P312,149,trigonal,-90.2874,-0.9339,-0.0711,3D,,False,0.0,,-0.0711,-0.0647
101986,F28La3Pr1Pt4,44050e75a3,La3PrPt4F28,"['F', 'La', 'Pr', 'Pt']",36,585.0708,5.3072,1,P1,1,triclinic,-203.2307,-2.9399,-0.061,3D,,True,0.0,,-0.061,-0.061
101995,Al1Ba1O16V7,44065d0e05,BaAlV7O16,"['O', 'Al', 'V', 'Ba']",25,299.534,4.3069,1,P1,1,triclinic,-215.6863,-2.6907,-0.0044,intercalated ion,0.8316,True,0.0,,-0.0044,-0.0044
102018,Ir1O12Tb5Ti1,440aba13f9,Tb5TiIrO12,"['O', 'Ti', 'Tb', 'Ir']",19,257.3403,7.9155,2,C2,5,monoclinic,-164.7916,-3.4479,-0.0386,3D,0.3064,False,0.0,,-0.0386,-0.0309
102053,Br6La1Pr4Si14Sm7,4410acdadc,LaPr4Sm7(Si7Br3)2,"['Si', 'Br', 'La', 'Pr', 'Sm']",32,782.2816,5.5777,m,Pm,6,monoclinic,-178.6569,-1.1185,-0.0356,3D,0.0069,True,-0.0,,-0.0356,-0.0054
102110,Cl24Li4Sb4,441be1ce40,LiSbCl6,"['Li', 'Cl', 'Sb']",32,918.4602,2.4691,3,R3,146,trigonal,-114.2963,-1.4306,-0.0272,intercalated ion,2.0616,True,0.0,,-0.0272,-0.0242
102127,Ba1La2O19Os6Sr1,441f858e49,BaSrLa2Os6O19,"['O', 'Sr', 'Ba', 'La', 'Os']",29,396.595,8.1568,1,P1,1,triclinic,-239.2463,-2.2204,-0.0777,intercalated ion,,True,0.0,,-0.0777,-0.0687