Unnamed: 0,Composition,MaterialId,Reduced Formula,Elements,NSites,Volume,Density,Point Group,Space Group,Space Group Number,Crystal System,Corrected Energy,Formation Energy Per Atom,Decomposition Energy Per Atom,Dimensionality Cheon,Bandgap,Is Train,Decomposition Energy Per Atom All,Decomposition Energy Per Atom Relative,Decomposition Energy Per Atom MP,Decomposition Energy Per Atom MP OQMD
39008,Br18Cs6Ir1Sc1Tm2,1a08a11f82,Cs6Tm2ScIrBr18,"['Sc', 'Br', 'Cs', 'Tm', 'Ir']",28,1103.6498,4.229,3m,P3m1,156,trigonal,-114.9323,-1.999,-0.0568,intercalated ion,,True,0.0,,-0.0568,-0.0313
39082,Ga1O2Si1Zr6,1a1620e9e6,Zr6GaSiO2,"['O', 'Si', 'Ga', 'Zr']",10,169.7408,6.6244,mm2,Amm2,38,orthorhombic,-85.3515,-1.5716,-0.0372,3D,0.0004,True,0.0,,-0.0372,-0.0151
39093,Au1Hf16O4Rh7,1a186a782d,Hf16Rh7AuO4,"['O', 'Rh', 'Hf', 'Au']",28,475.0606,13.4124,3m,R3m,160,trigonal,-272.8267,-1.3891,-0.0292,3D,0.0054,True,0.0,,-0.0292,-0.0173
39096,Nb3O18Sb1Sr8,1a18f407bf,Sr8Nb3SbO18,"['O', 'Sr', 'Nb', 'Sb']",30,489.4951,4.7134,3,P3,143,trigonal,-231.6034,-3.153,-0.0104,intercalated ion,3.6428,True,0.0,,-0.0104,-0.009
39133,Br8Ce1Zr1,1a1fb98a76,CeZrBr8,"['Br', 'Zr', 'Ce']",10,406.3474,3.5576,2,P2,3,monoclinic,-46.7837,-1.9207,-0.1191,1D,1.6048,True,0.0,,-0.1191,-0.0066
39176,Br12Ho7Si2Y1,1a2774b857,YHo7(SiBr6)2,"['Si', 'Br', 'Y', 'Ho']",22,755.1994,4.9659,m,Pm,6,monoclinic,-110.4814,-1.8838,-0.0791,3D,,True,0.0,,-0.0791,-0.038
39186,Eu2F14U2,1a2a94108f,EuUF7,"['F', 'Eu', 'U']",18,367.0115,4.7324,2,P2_1,4,monoclinic,-143.6625,-4.0964,-0.1525,3D,,True,-0.0,,-0.1525,-0.1507
39239,Cl30Ir1Os5,1a343edd06,Ir(OsCl6)5,"['Cl', 'Os', 'Ir']",36,1091.8314,3.3565,2,C2,5,monoclinic,-152.5325,-0.8917,-0.1772,0D,,True,0.0,,-0.1772,-0.1388
39262,Ga7O4Ti12Zn1,1a378392bb,Ti12ZnGa7O4,"['O', 'Ti', 'Zn', 'Ga']",24,324.5229,6.0986,3,R3,146,trigonal,-168.5636,-1.3154,-0.0516,3D,0.0096,False,0.0,,-0.0516,-0.0494
39309,Eu1F12Nb1Ta1,1a3ee082d3,EuTaNbF12,"['F', 'Nb', 'Eu', 'Ta']",15,253.2282,4.2873,1,P1,1,triclinic,-110.0974,-3.6606,-0.0737,2D,,True,0.0,,-0.0737,-0.0303
39314,F28Rh4Sm3Y1,1a3f352f48,Sm3YRh4F28,"['F', 'Y', 'Rh', 'Sm']",36,538.2045,4.5773,1,P1,1,triclinic,-210.8501,-2.9791,-0.0364,3D,0.0054,True,-0.0,,-0.0364,-0.0336
39449,Au4O12Pr3Tm1,1a56265088,Pr3Tm(AuO3)4,"['O', 'Pr', 'Tm', 'Au']",20,285.1248,9.1524,m,Pm,6,monoclinic,-135.946,-2.2328,-0.091,3D,,True,0.0,,-0.091,-0.011
39466,B32Li8O56Tl8,1a58a7ced9,LiTlB4O7,"['Li', 'B', 'O', 'Tl']",104,1319.8501,3.6895,222,P2_12_12_1,19,orthorhombic,-799.9837,-2.6439,-0.0045,intercalated ion,,True,0.0,,-0.0045,-0.0019
39539,Bi2La2O14Sb2Tb2,1a64738701,LaTbBiSbO7,"['O', 'Sb', 'La', 'Tb', 'Bi']",22,319.1981,7.7052,mm2,Ama2,40,orthorhombic,-167.7852,-2.8789,-0.0219,3D,,True,0.0,,-0.0219,-0.0219
39557,Ir1O12Pr5Ti1,1a6726d193,Pr5TiIrO12,"['O', 'Ti', 'Pr', 'Ir']",19,286.953,6.5774,2,C2,5,monoclinic,-162.9762,-3.3138,-0.009,3D,0.3306,True,0.0,,-0.009,-0.009
39566,Bi1O12S2Sm3,1a6813301b,Sm3Bi(SO6)2,"['O', 'S', 'Sm', 'Bi']",18,234.2102,6.4957,1,P1,1,triclinic,-136.4247,-2.8184,-0.0421,3D,3.9963,True,-0.0,,-0.0421,-0.0084
39610,Br12Ho5Si2Sm3,1a6e91abd5,Sm3Ho5(SiBr6)2,"['Si', 'Br', 'Sm', 'Ho']",22,765.9075,4.9665,m,Pm,6,monoclinic,-109.0353,-1.8852,-0.0641,3D,0.0012,False,0.0,,-0.0641,-0.0472
39627,Cl8Ir1Pd1,1a7207e580,IrPdCl8,"['Cl', 'Pd', 'Ir']",10,289.1861,3.3434,2,P2,3,monoclinic,-37.2179,-0.8411,-0.1905,1D,,True,0.0,,-0.1905,-0.0081
39642,Ac1Cl2O8Sb5,1a7447a284,AcSb5(ClO4)2,"['O', 'Cl', 'Sb', 'Ac']",16,292.7775,5.8685,2,P2,3,monoclinic,-101.4515,-2.0878,-0.034,intercalated ion,,True,0.0,,-0.034,-0.0126
39648,Bi1In2O18Te3Tl3,1a74b9df1f,Tl3In2Bi(TeO6)3,"['O', 'In', 'Te', 'Tl', 'Bi']",27,374.7874,7.632,2,C2,5,monoclinic,-156.5942,-1.5416,-0.0183,3D,,True,-0.0,,-0.0183,-0.0178
39668,Eu1O20Pb3Se8,1a77a71776,EuPb3(Se2O5)4,"['O', 'Se', 'Eu', 'Pb']",32,559.534,5.12,1,P1,1,triclinic,-196.8567,-1.5156,-0.033,3D,,True,0.0,,-0.033,-0.0268
39718,K1O8Rb3Sc4,1a7f17ed5e,KRb3Sc4O8,"['O', 'K', 'Sc', 'Rb']",16,313.1692,3.199,1,P1,1,triclinic,-117.7574,-3.0495,-0.024,intercalated ion,,False,0.0,,-0.024,-0.024
39724,As1Ge1Ir2O2Pr2,1a7fa566d3,Pr2GeAs(IrO)2,"['O', 'Ge', 'As', 'Pr', 'Ir']",8,145.2392,9.6703,4mm,P4mm,99,tetragonal,-62.1129,-1.962,-0.0254,3D,0.0668,True,0.0,,-0.0254,-0.0166
39785,Bi7La1O16,1a89c02915,LaBi7O16,"['O', 'La', 'Bi']",24,361.0064,8.5452,1,P1,1,triclinic,-152.5166,-1.716,-0.0256,3D,,True,0.0,,-0.0256,-0.0093
39812,Ag4F24Sn4Tl4,1a8e89e64e,TlAgSnF6,"['F', 'Ag', 'Sn', 'Tl']",36,655.6104,5.521,mm2,Pna2_1,33,orthorhombic,-167.646,-2.3599,-0.0574,intercalated ion,,True,0.0,,-0.0574,-0.0574
39820,Ba8O68P8Sb1Ta15,1a903bae3a,Ba8Ta15Sb(P2O17)4,"['O', 'P', 'Sb', 'Ba', 'Ta']",100,1542.0551,5.6753,1,P1,1,triclinic,-902.9346,-3.2582,-0.0128,intercalated ion,inf,True,0.0,,-0.0128,-0.0101
39874,O1P1Si5Ti10,1a99e34ce0,Ti10Si5PO,"['O', 'Si', 'P', 'Ti']",17,242.3568,4.5637,m,Cm,8,monoclinic,-135.3478,-1.1121,-0.0462,3D,0.0029,True,0.0,,-0.0462,-0.046
39875,Cl24Li1Na7Pa4,1a99f582e9,Na7LiPa4Cl24,"['Li', 'Na', 'Cl', 'Pa']",36,1151.4189,2.802,3,P3,143,trigonal,-175.5481,-2.2757,-0.0361,intercalated ion,,True,0.0,,-0.0361,-0.0352
39892,Cl3Cs3F3Mo1,1a9cebc79f,Cs3Mo(ClF)3,"['F', 'Cl', 'Mo', 'Cs']",10,301.4608,3.6245,3,R3,146,trigonal,-49.498,-2.4686,-0.0091,intercalated ion,4.1357,True,0.0,,-0.0091,-0.0083
39927,Ca1Eu1O22Ta8,1aa11b6c93,CaEuTa8O22,"['O', 'Ca', 'Eu', 'Ta']",32,428.178,7.7238,32,P312,149,trigonal,-325.7307,-3.4286,-0.0067,intercalated ion,0.2276,False,0.0,,-0.0067,-0.0052
39981,Gd1Nb2O14Pr4Y1,1aaa65c6e2,Pr4GdYNb2O14,"['O', 'Y', 'Nb', 'Pr', 'Gd']",22,325.1111,6.2292,m,Pm,6,monoclinic,-209.6369,-3.6589,-0.0021,3D,,True,0.0,,-0.0021,-0.0019
40035,Al2Cl28P2,1ab42ebe99,AlPCl14,"['Al', 'P', 'Cl']",32,1202.0198,1.5315,2,P2_1,4,monoclinic,-107.3714,-1.1655,-0.2669,0D,,True,-0.0,,-0.2669,-0.0896
40147,Ba3K3O52Rb3Si8Ta12,1acad6beff,K3Rb3Ba3Ta12(Si2O13)4,"['O', 'Si', 'K', 'Rb', 'Ba', 'Ta']",81,1147.0614,5.8104,mm2,Pmm2,25,orthorhombic,-721.0422,-3.2842,-0.0045,intercalated ion,,True,0.0,,-0.0045,-0.0045
40161,F28Mo1Y4Zr3,1acc586fc4,Y4Zr3MoF28,"['F', 'Y', 'Zr', 'Mo']",36,569.0457,3.6686,1,P1,1,triclinic,-261.4983,-4.0451,-0.0161,3D,,True,0.0,,-0.0161,-0.004
40194,Ir3O16Sr4Te1,1ad2b41a44,Sr4TeIr3O16,"['O', 'Sr', 'Te', 'Ir']",24,377.0254,5.7728,2,P2,3,monoclinic,-164.2129,-2.0262,-0.1192,intercalated ion,0.0112,False,0.0,,-0.1192,-0.0817
40198,As4O20Rb4V4,1ad330b79e,RbVAsO5,"['O', 'V', 'As', 'Rb']",32,595.5576,3.2491,222,P2_12_12_1,19,orthorhombic,-226.9673,-2.1598,-0.0573,intercalated ion,2.8154,False,0.0,,-0.0573,-0.0163
40227,O12Pd1Pr3Ru1Sm2,1ad9cbdb07,Pr3Sm2PdRuO12,"['O', 'Ru', 'Pd', 'Pr', 'Sm']",19,282.5697,6.5989,2,C2,5,monoclinic,-153.5595,-2.9447,-0.0421,3D,0.0041,True,0.0,,-0.0421,-0.0368
40237,Eu2Na2O12Ti4,1adb77717f,NaEuTi2O6,"['O', 'Na', 'Ti', 'Eu']",20,228.6371,5.3263,mm2,Pmc2_1,26,orthorhombic,-179.5967,-3.2701,-0.0262,intercalated ion,,True,0.0,,-0.0262,-0.0022
40239,Ca4O24Rh1Ru7,1adb9fd80a,Ca4Ru7RhO24,"['O', 'Ca', 'Ru', 'Rh']",36,431.9131,5.2083,1,P1,1,triclinic,-265.9052,-1.8569,-0.0252,intercalated ion,0.0017,True,0.0,,-0.0252,-0.0252
40263,F28Pr3Pu1Re4,1ae03c40fe,Pr3PuRe4F28,"['F', 'Pr', 'Re', 'Pu']",36,590.4462,5.4658,1,P1,1,triclinic,-248.5089,-3.2389,-0.0357,3D,,True,0.0,,-0.0357,-0.0312
40276,Cl12Pr12Pt1Ru3,1ae291e9c8,Pr12Ru3PtCl12,"['Cl', 'Ru', 'Pr', 'Pt']",28,842.6733,5.1523,32,R32,155,trigonal,-162.518,-1.7525,-0.024,3D,0.005,False,0.0,,-0.024,-0.0181
40283,Br2Eu9Pb6Y1,1ae38ea78f,Eu9Y(Pb3Br)2,"['Br', 'Y', 'Eu', 'Pb']",18,589.9794,8.0485,32,P312,149,trigonal,-140.1678,-0.8624,-0.0954,3D,,True,0.0,,-0.0954,-0.0031
40297,Ca1La3O12Rh4,1ae660b29d,CaLa3(RhO3)4,"['O', 'Ca', 'Rh', 'La']",20,252.606,6.9707,m,Pm,6,monoclinic,-154.3183,-2.4336,-0.001,intercalated ion,0.0053,True,0.0,,-0.001,-0.001
40339,Br12Ga3P1Pr12,1aed1bb39a,Pr12Ga3PBr12,"['P', 'Ga', 'Br', 'Pr']",28,895.3372,5.3597,32,R32,155,trigonal,-138.1072,-1.6641,-0.0605,3D,0.0252,False,0.0,,-0.0605,-0.0146
40371,Br12Ce2Cs1K3,1af38077a8,CsK3Ce2Br12,"['K', 'Br', 'Cs', 'Ce']",18,697.7046,3.5445,1,P1,1,triclinic,-73.1392,-2.078,-0.0634,intercalated ion,,True,0.0,,-0.0634,-0.0204
40379,Au3Cl12I1,1af582a4d5,Au3ICl12,"['Cl', 'I', 'Au']",16,566.2547,3.3525,1,P1,1,triclinic,-45.2269,-0.7312,-0.025,0D,1.036,True,0.0,,-0.025,-0.025
40380,Br2Ho1O8Sb5,1af59f39c9,HoSb5(BrO4)2,"['O', 'Br', 'Sb', 'Ho']",16,287.4815,6.1316,2,P2,3,monoclinic,-100.7871,-2.0439,-0.0324,intercalated ion,,True,0.0,,-0.0324,-0.0033
40392,As2Cl2Cs1Nb2O10Rb1,1af9283876,CsRbNb2As2(ClO5)2,"['O', 'Cl', 'As', 'Rb', 'Nb', 'Cs']",18,362.9865,3.5908,-42m,P-4m2,115,tetragonal,-126.541,-2.3315,-0.0102,intercalated ion,,True,0.0,,-0.0102,-0.0062
40420,F18Ga3Li3Zn3,1afdf5e31b,LiZnGaF6,"['Li', 'F', 'Zn', 'Ga']",27,305.0421,4.1818,32,P321,150,trigonal,-131.4022,-2.9039,-0.0095,intercalated ion,4.7663,True,-0.0,,-0.0095,-0.0087
40437,Bi7Lu1O14,1aff896098,Lu(BiO2)7,"['O', 'Lu', 'Bi']",22,342.6541,9.0226,1,P1,1,triclinic,-141.8887,-1.8575,-0.0123,3D,1.0266,False,0.0,,-0.0123,-0.0103
40543,Br6Li2O18Pd1,1b0fe114e4,Li2Pd(BrO3)6,"['Li', 'O', 'Br', 'Pd']",27,406.3927,3.6272,3,P3,143,trigonal,-124.1829,-0.6035,-0.1292,intercalated ion,,True,-0.0,,-0.1292,-0.1243
40573,Ag9Mg6O18Sb3,1b151d7cc5,Mg2Ag3SbO6,"['O', 'Mg', 'Ag', 'Sb']",36,486.6484,6.0393,32,P3_112,151,trigonal,-200.8554,-1.7864,-0.0594,3D,0.9345,True,0.0,,-0.0594,-0.0594
40585,O2Sm5Sn6Tb1Zr4,1b166ffa94,TbSm5Zr4(Sn3O)2,"['O', 'Zr', 'Sn', 'Sm', 'Tb']",18,416.5762,8.0516,mm2,Amm2,38,orthorhombic,-119.4049,-1.2796,-0.0027,3D,0.0004,True,0.0,,-0.0027,-0.0027
40662,Br4I4Rb4Zn2,1b2368055a,Rb2Zn(IBr)2,"['Zn', 'Br', 'Rb', 'I']",14,603.6585,3.5758,mm2,Ama2,40,orthorhombic,-40.9062,-1.5586,-0.004,intercalated ion,3.5314,False,0.0,,-0.004,-0.0024
40692,Ba2Nb1O8Re1,1b2730cc26,Ba2NbReO8,"['O', 'Nb', 'Ba', 'Re']",12,212.503,5.3274,-4,I-4,82,tetragonal,-101.1217,-2.9295,-0.0587,intercalated ion,1.9795,False,0.0,,-0.0587,-0.0139
40715,Br12Hf1Se1Tc1,1b2a4655c6,HfTcSeBr12,"['Se', 'Br', 'Tc', 'Hf']",15,594.2538,3.6726,m,Cm,8,monoclinic,-60.3738,-1.1278,-0.0919,0D,1.1001,True,-0.0,,-0.0919,-0.0105
40758,Ho3La1O14Ta2Y2,1b3177aa91,LaY2Ho3Ta2O14,"['O', 'Y', 'La', 'Ho', 'Ta']",22,302.6926,7.666,1,P1,1,triclinic,-209.789,-3.8721,-0.0162,3D,3.5643,True,-0.0,,-0.0162,-0.0162
40873,Be1O8Tc2,1b454f8be9,Be(TcO4)2,"['Be', 'O', 'Tc']",11,181.9438,3.0392,2,C2,5,monoclinic,-86.5144,-2.0427,-0.0057,intercalated ion,,True,0.0,,-0.0057,-0.0057
40896,Ca4O12Tm2U2,1b494f54eb,Ca2TmUO6,"['O', 'Ca', 'Tm', 'U']",20,308.5209,6.277,1,P1,1,triclinic,-174.0871,-3.7577,-0.0309,intercalated ion,0.8553,True,0.0,,-0.0309,-0.0309
40921,Ca3O19Os6Pr1,1b4fc12631,Ca3PrOs6O19,"['O', 'Ca', 'Pr', 'Os']",29,382.1906,7.4144,3,R3,146,trigonal,-233.7783,-2.1243,-0.0407,intercalated ion,0.002,True,0.0,,-0.0407,-0.0113
40973,F30Pd2Tb1Y1Zr4,1b584edf74,TbYZr4Pd2F30,"['F', 'Y', 'Zr', 'Pd', 'Tb']",38,515.0455,4.4992,2,C2,5,monoclinic,-244.6308,-3.4641,-0.0107,3D,1.9182,True,0.0,,-0.0107,-0.0102
40982,Ag10In1O12Pb2Tl1,1b599ccc70,TlInAg10(PbO6)2,"['O', 'Ag', 'In', 'Tl', 'Pb']",26,402.5998,8.2667,2,C2,5,monoclinic,-121.6001,-0.8216,-0.0052,3D,0.004,True,0.0,,-0.0052,-0.0051
41004,Cl5O4Tc2,1b5d28964c,Tc2Cl5O4,"['O', 'Cl', 'Tc']",11,319.0565,2.2757,1,P1,1,triclinic,-65.7754,-1.4563,-0.161,0D,0.7342,True,0.0,,-0.161,-0.1609
41010,Be1F3S24,1b5db301ca,Be(S8F)3,"['Be', 'F', 'S']",28,941.0145,1.4745,3m,R3m,160,trigonal,-131.3409,-0.8069,-0.3371,intercalated ion,0.0009,True,0.0,,-0.3371,-0.337
41020,Ag2O26Sb10,1b5f2576bd,AgSb5O13,"['O', 'Ag', 'Sb']",38,509.1262,6.0316,mm2,Ama2,40,orthorhombic,-240.1786,-1.6994,-0.0344,3D,0.2147,True,0.0,,-0.0344,-0.0311
41039,Bi4Lu1O14Pr3,1b61e741de,Pr3Lu(Bi2O7)2,"['O', 'Pr', 'Lu', 'Bi']",22,344.0087,8.0013,1,P1,1,triclinic,-161.1011,-2.6094,-0.0302,3D,,True,0.0,,-0.0302,-0.0302
41044,Bi3O14Tm3W2,1b62fe9a44,Tm3Bi3(WO7)2,"['O', 'Tm', 'W', 'Bi']",22,311.6589,9.1931,1,P1,1,triclinic,-179.8816,-2.7089,-0.0083,3D,,True,0.0,,-0.0083,-0.0082
41048,Br2Ho2P1Rh1,1b645becde,Ho2PRhBr2,"['P', 'Br', 'Rh', 'Ho']",6,152.6888,6.7813,3m,P3m1,156,trigonal,-35.6735,-1.7429,-0.064,2D,,False,0.0,,-0.064,-0.012
41138,Al3Bi4O20Ti4V1,1b72e09715,Ti4Al3V(BiO5)4,"['O', 'Al', 'Ti', 'V', 'Bi']",32,388.4783,6.3231,2,P2,3,monoclinic,-258.0355,-2.8629,-0.0157,3D,1.707,True,0.0,,-0.0157,-0.0154
41151,Hg1O6Te1Ti1,1b747d2f10,TiHgTeO6,"['O', 'Ti', 'Te', 'Hg']",9,119.4284,6.5635,32,P312,149,trigonal,-58.5929,-1.9514,-0.0069,3D,1.09,True,0.0,,-0.0069,-0.0069
41174,Br6La5Si14Sm7,1b7956d7b7,La5Sm7(Si7Br3)2,"['Si', 'Br', 'La', 'Sm']",32,789.9048,5.5071,mm2,Pmm2,25,orthorhombic,-180.1405,-1.1455,-0.0234,3D,0.0027,True,0.0,,-0.0234,-0.004
41215,Ce1F12Gd3,1b8150b2f5,CeGd3F12,"['F', 'Ce', 'Gd']",16,213.151,6.5428,m,Pm,6,monoclinic,-141.2306,-4.3794,-0.2215,3D,,True,0.0,,-0.2215,-0.0032
41249,B1Br18Cs1Lu7Rb1,1b86dbc136,CsRbLu7BBr18,"['B', 'Br', 'Rb', 'Cs', 'Lu']",28,915.5877,5.2454,3,R3,146,trigonal,-128.4822,-2.1006,-0.0838,intercalated ion,1.8836,True,-0.0,,-0.0838,-0.0246
41282,Al8Ba8O30Pr4Sr4,1b8da5f286,Ba4Sr2Pr2Al4O15,"['O', 'Al', 'Sr', 'Ba', 'Pr']",54,819.2581,5.4899,m,Cc,9,monoclinic,-401.9867,-3.3768,-0.0139,intercalated ion,,False,0.0,,-0.0139,-0.0139
41328,C8Cl12Ho15Tm1,1b9311331a,Ho15Tm(C2Cl3)4,"['C', 'Cl', 'Ho', 'Tm']",36,746.188,7.042,m,Pm,6,monoclinic,-225.8117,-1.5723,-0.2084,3D,,True,-0.0,,-0.2084,-0.0194
41395,Br6Mg1Np1,1b9ba6e9a0,MgNpBr6,"['Mg', 'Br', 'Np']",8,289.5275,4.2483,3,R3,146,trigonal,-38.4941,-1.7656,-0.1632,2D,0.126,True,0.0,,-0.1632,-0.0048
41401,Gd2Ge3O1Zn5,1b9c50440e,Gd2Zn5Ge3O,"['O', 'Zn', 'Ge', 'Gd']",11,1486.4557,0.978,m,Pm,6,monoclinic,-84.052,-2.7985,-1.9399,intercalated ion,,True,0.0,,-1.952,-1.949
41411,Cs2Lu1O24Sn11,1b9cff64bc,Cs2LuSn11O24,"['O', 'Sn', 'Cs', 'Lu']",38,570.2939,6.2036,1,P1,1,triclinic,-253.7716,-2.2264,-0.0275,intercalated ion,,True,0.0,,-0.0275,-0.0275
41429,As6Ga4O24Rb6,1ba1e53f8b,Rb3Ga2(AsO4)3,"['O', 'Ga', 'As', 'Rb']",40,787.5118,3.4269,mm2,Cmc2_1,36,orthorhombic,-246.422,-2.043,-0.2564,intercalated ion,,True,0.0,,-0.2564,-0.0205
41437,Ba8O18Sb3Ta1,1ba2da5523,Ba8Ta(SbO6)3,"['O', 'Sb', 'Ba', 'Ta']",30,553.9089,5.7944,3,P3,143,trigonal,-213.9873,-2.8442,-0.0165,intercalated ion,3.0511,False,0.0,,-0.0165,-0.0161
41439,F24Li6W4,1ba33e5dfe,Li3(WF6)2,"['Li', 'F', 'W']",34,475.0656,4.3097,m,Pc,7,monoclinic,-209.8598,-2.9617,-0.0445,intercalated ion,2.5113,True,0.0,,-0.0445,-0.0342
41494,Cs2Nb1O12W3,1bac88b738,Cs2Nb(WO4)3,"['O', 'Nb', 'Cs', 'W']",18,294.3081,6.219,2,C2,5,monoclinic,-154.4104,-2.4594,-0.0278,intercalated ion,1.8493,True,0.0,,-0.0278,-0.0043
41533,Ge1K8O12Ti3,1bb296d589,K8Ti3GeO12,"['O', 'K', 'Ti', 'Ge']",24,427.6076,2.8,m,Cm,8,monoclinic,-159.1153,-2.6105,-0.0117,2D,,True,0.0,,-0.0117,-0.0065
41551,As4O14Pt1Sn1,1bb54712e6,SnAs4PtO14,"['O', 'As', 'Sn', 'Pt']",20,302.5306,4.5967,1,P1,1,triclinic,-129.2803,-1.5646,-0.0164,3D,1.8741,True,0.0,,-0.0164,-0.0164
41565,Cs4Na2O8P2,1bb7bd0d9e,Cs2NaPO4,"['O', 'Na', 'P', 'Cs']",16,327.7551,3.8887,mm2,Cmc2_1,36,orthorhombic,-96.5118,-2.4922,-0.0025,intercalated ion,3.8192,False,0.0,,-0.0025,-0.0016
41606,O13Pb4Sn3W1,1bbfa9b6e2,Sn3Pb4WO13,"['O', 'Sn', 'W', 'Pb']",21,312.5273,8.3777,3m,R3m,160,trigonal,-144.8584,-1.938,-0.0093,3D,1.2694,True,0.0,,-0.0093,-0.0093
41637,Eu4O18Rb4Si6,1bc55965a9,Rb2Eu2(SiO3)3,"['O', 'Si', 'Rb', 'Eu']",32,574.2474,4.0664,m,Pc,7,monoclinic,-266.2305,-3.1102,-0.0189,3D,inf,True,-0.0,,-0.0189,-0.0145
41749,Hf16Ir6O4Pd2,1bd90e2ff5,Hf8Ir3PdO2,"['O', 'Pd', 'Hf', 'Ir']",28,475.1189,14.9795,mm2,Imm2,44,orthorhombic,-283.4088,-1.4611,-0.0158,3D,0.0037,True,0.0,,-0.0158,-0.0126
41755,Cl10Hg8Lu2S4,1bda8f7759,LuHg4S2Cl5,"['S', 'Cl', 'Lu', 'Hg']",24,711.6063,5.6878,2,P2_1,4,monoclinic,-78.9324,-1.3512,-0.053,3D,2.4373,True,0.0,,-0.053,-0.0236
41769,O18Sb2Sm2Ta4,1bdc78074c,SmTa2SbO9,"['O', 'Sb', 'Sm', 'Ta']",26,340.2318,7.5943,m,Pm,6,monoclinic,-234.8726,-3.1032,-0.0025,3D,2.8841,True,0.0,,-0.0025,-0.0025
41784,Ga2H6O2Sr2,1bdef277e8,SrGaH3O,"['H', 'O', 'Ga', 'Sr']",12,169.7771,3.45,2,P2_1,4,monoclinic,-52.841,-1.0961,-0.0155,intercalated ion,4.0409,True,0.0,,-0.0155,-0.0147
41791,Au4Br24Ca1Th3,1be071a912,CaTh3(AuBr6)4,"['Ca', 'Br', 'Au', 'Th']",32,1130.9391,5.0535,1,P1,1,triclinic,-124.0718,-1.4826,-0.0048,intercalated ion,,True,-0.0,,-0.0048,-0.0029
41798,Cu2Ga6O4Ti12,1be113e0e9,Ti6Ga3CuO2,"['O', 'Ti', 'Cu', 'Ga']",24,320.7394,6.129,2,P2_1,4,monoclinic,-172.0338,-1.297,-0.0628,3D,0.0024,True,0.0,,-0.0628,-0.0619
41920,F14Hf1Re1Tm2,1bf6308100,Tm2HfReF14,"['F', 'Tm', 'Hf', 'Re']",18,268.7082,5.9853,1,P1,1,triclinic,-126.8413,-3.8182,-0.0947,3D,1.6761,True,0.0,,-0.0947,-0.0081
41966,B2Br15Pr9Y1,1bfda67271,Pr9YB2Br15,"['B', 'Br', 'Y', 'Pr']",27,897.4081,4.7689,1,P1,1,triclinic,-137.1292,-1.8416,-0.0254,3D,0.0031,True,0.0,,-0.0254,-0.0246
41974,F36O1Re1,1bff1aa381,ReOF36,"['O', 'F', 'Re']",38,687.0155,2.1419,1,P1,1,triclinic,-117.5482,-0.8248,-0.2809,intercalated ion,,True,0.0,,-0.2809,-0.277
42027,Br18Cs2Li2Nb3Ta3,1c05e75ff6,Cs2Li2Ta3(NbBr6)3,"['Li', 'Br', 'Nb', 'Cs', 'Ta']",28,840.9337,5.0146,1,P1,1,triclinic,-142.66,-1.4896,-0.0248,intercalated ion,1.1564,True,0.0,,-0.0248,-0.0239
42039,F10H1Pa4,1c07c0ef96,Pa4HF10,"['H', 'F', 'Pa']",15,285.7234,6.4808,1,P1,1,triclinic,-113.3323,-3.5177,-3.2917,3D,,False,0.0,,-3.2917,-0.2562
42076,Cl1I10Pt1,1c10220286,PtI10Cl,"['Cl', 'I', 'Pt']",12,589.9014,4.2212,1,P1,1,triclinic,-28.3958,-0.4364,-0.1785,2D,,True,0.0,,-0.1785,-0.1749
42096,Br8Ca3O24Zn1,1c13965fd3,Ca3Zn(BrO3)8,"['O', 'Ca', 'Zn', 'Br']",36,639.6535,3.1382,1,P1,1,triclinic,-175.2397,-1.0032,-0.2412,intercalated ion,4.1074,True,0.0,,-0.2412,-0.2149
42098,Ac1F28U3Zr4,1c147ad7f8,AcZr4U3F28,"['F', 'Zr', 'Ac', 'U']",36,638.0591,4.7832,1,P1,1,triclinic,-270.2046,-4.0138,-0.0516,3D,0.0897,True,0.0,,-0.0516,-0.0382
42157,Au4Bi3O12Tm1,1c1d9eb672,TmBi3(AuO3)4,"['O', 'Tm', 'Au', 'Bi']",20,295.3729,9.9829,m,Pm,6,monoclinic,-116.6038,-1.3993,-0.0111,3D,,True,0.0,,-0.0111,-0.0061
42196,Ho3Mo1O24Se5Tm1,1c240dd365,Ho3TmMoSe5O24,"['O', 'Se', 'Mo', 'Ho', 'Tm']",34,673.8338,3.7912,1,P1,1,triclinic,-239.7885,-2.1909,-0.0272,3D,3.8504,True,0.0,,-0.0272,-0.0218
42217,F15Pr1U3,1c26ccc9aa,PrU3F15,"['F', 'Pr', 'U']",19,326.7594,5.7931,3m,R3m,160,trigonal,-144.6815,-4.0713,-0.0116,3D,0.4982,True,0.0,,-0.0116,-0.0112
42303,Al3O24Tm4V1W4,1c389c8c23,Tm4Al3V(WO6)4,"['O', 'Al', 'V', 'Tm', 'W']",36,408.5435,7.8322,1,P1,1,triclinic,-319.0451,-3.0622,-0.009,3D,,True,-0.0,,-0.009,-0.0088
42314,Cu4Li1O8Tb1,1c3b4c07d1,LiTb(CuO2)4,"['Li', 'O', 'Cu', 'Tb']",14,150.586,6.0434,-4,I-4,82,tetragonal,-85.2874,-1.626,-0.0533,intercalated ion,0.6491,False,0.0,,-0.0533,-0.0354
42361,Ac2F14Ir1Pt1,1c431ce285,Ac2IrPtF14,"['F', 'Ir', 'Pt', 'Ac']",18,309.3863,5.943,1,P1,1,triclinic,-103.746,-2.9908,-0.0997,3D,,False,0.0,,-0.0997,-0.0449
42433,Ho1Na4O6Os1,1c4f242960,Na4HoOsO6,"['O', 'Na', 'Ho', 'Os']",12,153.2016,5.8868,2,C2,5,monoclinic,-77.4563,-2.2224,-0.0042,intercalated ion,0.7857,True,0.0,,-0.0042,-0.0036
42469,F28Hf4Sm1Y3,1c54f9e526,SmY3Hf4F28,"['F', 'Y', 'Sm', 'Hf']",36,566.7165,4.8727,1,P1,1,triclinic,-272.7186,-4.3125,-0.0036,3D,6.9643,True,0.0,,-0.0036,-0.0017
42507,F12Ga2Li2Mg2,1c5ad3f9d5,LiMgGaF6,"['Li', 'F', 'Mg', 'Ga']",18,198.344,3.5993,4mm,P4_2nm,102,tetragonal,-95.5404,-3.3071,-0.0039,intercalated ion,5.8759,True,0.0,,-0.0039,-0.0031
42543,Ba4O12Re1Sm1W1,1c6105ae64,Ba4SmReWO12,"['O', 'Ba', 'Sm', 'W', 'Re']",19,296.9378,7.0557,3m,R3m,160,trigonal,-153.3965,-2.9591,-0.0206,intercalated ion,1.9574,True,0.0,,-0.0206,-0.0185
42584,Eu2F22Hf3Nb1,1c6823770c,Eu2Hf3NbF22,"['F', 'Nb', 'Eu', 'Hf']",28,440.3138,5.0922,m,Cm,8,monoclinic,-215.3289,-4.0257,-0.1016,3D,0.9319,True,0.0,,-0.1016,-0.0603
42596,Br12Mo1Os1Se1,1c6adfaaa2,MoOsSeBr12,"['Se', 'Br', 'Mo', 'Os']",15,598.4836,3.6735,m,Cm,8,monoclinic,-56.4732,-0.7507,-0.11,0D,,False,0.0,,-0.11,-0.0239
42621,Cl2Pb6Pr7Sm3,1c6dbe5431,Pr7Sm3(Pb3Cl)2,"['Cl', 'Pr', 'Sm', 'Pb']",18,542.8074,8.4174,32,P312,149,trigonal,-90.3835,-0.9327,-0.0613,3D,0.0017,True,-0.0,,-0.0613,-0.0576
42647,Au4O12Tb2Y2,1c7188b29c,TbY(AuO3)2,"['O', 'Y', 'Tb', 'Au']",20,279.8109,8.7565,mm2,Pma2,28,orthorhombic,-140.1251,-2.2726,-0.0545,3D,2.0206,True,0.0,,-0.0545,-0.0097