Unnamed: 0,Composition,MaterialId,Reduced Formula,Elements,NSites,Volume,Density,Point Group,Space Group,Space Group Number,Crystal System,Corrected Energy,Formation Energy Per Atom,Decomposition Energy Per Atom,Dimensionality Cheon,Bandgap,Is Train,Decomposition Energy Per Atom All,Decomposition Energy Per Atom Relative,Decomposition Energy Per Atom MP,Decomposition Energy Per Atom MP OQMD
126745,Gd6In5O18Rh1,54620500ae,Gd6In5RhO18,"['O', 'Rh', 'In', 'Gd']",30,440.9041,7.1878,m,Cm,8,monoclinic,-281.7416,-2.9033,-0.0287,3D,,False,-0.0,,-0.0287,-0.0236
126748,Al6Ga2Ge8O32Sr4,5462a306a0,Sr2Al3Ga(GeO4)4,"['O', 'Al', 'Ga', 'Ge', 'Sr']",52,776.6691,3.7307,2,P2_1,4,monoclinic,-374.6929,-2.7709,-0.011,intercalated ion,,True,0.0,,-0.011,-0.011
126750,Br12Na4Np1Th1,5462ecfeec,Na4ThNpBr12,"['Na', 'Br', 'Th', 'Np']",18,705.9283,3.5751,32,P312,149,trigonal,-80.0235,-1.9284,-0.1045,intercalated ion,,True,0.0,,-0.1045,-0.0339
126789,Ba1O19Os6Pr3,5467e8f83e,BaPr3Os6O19,"['O', 'Ba', 'Pr', 'Os']",29,390.4949,8.5278,3,R3,146,trigonal,-242.1202,-2.2236,-0.0733,intercalated ion,0.0006,True,0.0,,-0.0733,-0.0416
126937,F24In4Na4Sr4,54809626c5,NaSrInF6,"['F', 'Na', 'Sr', 'In']",36,584.8207,3.855,222,P2_12_12_1,19,orthorhombic,-189.8012,-3.3575,-0.0059,intercalated ion,5.2994,True,0.0,,-0.0059,-0.0056
126952,Ca1Cu4O8Y1,5483a75ad9,CaY(CuO2)4,"['O', 'Ca', 'Cu', 'Y']",14,157.6363,5.3846,-4,I-4,82,tetragonal,-90.9495,-1.8926,-0.0033,intercalated ion,0.0015,True,0.0,,-0.0033,-0.0033
126991,Cl1Pr19Si15Tb1,5489d2dbc3,TbPr19Si15Cl,"['Si', 'Cl', 'Pr', 'Tb']",36,960.8435,5.6908,1,P1,1,triclinic,-204.7803,-0.7245,-0.019,3D,0.0007,True,0.0,,-0.019,-0.0159
126997,Ag1Li11O48Pr12Te8,548a7b5d06,Li11Pr12Ag(TeO6)8,"['Li', 'O', 'Ag', 'Te', 'Pr']",80,1054.5979,5.769,-4,I-4,82,tetragonal,-556.9338,-2.6635,-0.0275,intercalated ion,2.2713,True,0.0,,-0.0275,-0.0224
127000,Br12Ho2Si2Tb3Tm3,548a9fa548,Tb3Ho2Tm3(SiBr6)2,"['Si', 'Br', 'Tb', 'Ho', 'Tm']",22,746.1262,5.1821,m,Pm,6,monoclinic,-108.3067,-1.8781,-0.0434,3D,,True,0.0,,-0.0434,-0.0109
127043,Bi5Lu2O14Sm1,54916458cf,SmLu2Bi5O14,"['O', 'Sm', 'Lu', 'Bi']",22,323.9102,9.0698,1,P1,1,triclinic,-155.4344,-2.4069,-0.0209,3D,,True,0.0,,-0.0209,-0.0209
127061,Cd1O14P4U1,54943dedd2,UCd(P2O7)2,"['O', 'P', 'Cd', 'U']",20,318.1714,3.6446,1,P1,1,triclinic,-157.2417,-2.7051,-0.015,3D,0.7214,True,0.0,,-0.015,-0.0142
127089,F4K1O40Rb3Si16Sr8,549a9f7ca2,KRb3Sr8Si16(O10F)4,"['O', 'F', 'Si', 'K', 'Rb', 'Sr']",72,1087.3116,3.3015,1,P1,1,triclinic,-550.527,-3.3415,-0.007,intercalated ion,,True,0.0,,-0.007,-0.0035
127116,Hg6In2La4O4,549ffe8cfe,La2InHg3O2,"['O', 'In', 'La', 'Hg']",16,384.488,8.8657,1,P1,1,triclinic,-75.8059,-1.809,-0.0381,3D,0.0048,True,0.0,,-0.0381,-0.0287
127137,Bi3F28Ho1Ti4,54a363291a,HoTi4Bi3F28,"['F', 'Ti', 'Ho', 'Bi']",36,527.0473,4.7742,1,P1,1,triclinic,-227.5968,-3.5067,-0.0354,3D,,True,0.0,,-0.0354,-0.0353
127138,O24Pr7Sm1W4,54a3a09ff0,Pr7Sm(WO6)4,"['O', 'Pr', 'Sm', 'W']",36,535.1318,7.0007,1,P1,1,triclinic,-324.8041,-3.2232,-0.0275,3D,3.7041,True,0.0,,-0.0275,-0.0275
127221,La2O12Os1Pr4,54b254a0e7,La2Pr4OsO12,"['O', 'La', 'Pr', 'Os']",19,303.0744,6.7044,1,P1,1,triclinic,-163.0907,-3.3417,-0.0088,3D,0.0044,False,0.0,,-0.0088,-0.0088
127284,Hf1Li12O14Sn1Zr2,54bebf1590,Li12HfZr2SnO14,"['Li', 'O', 'Zr', 'Sn', 'Hf']",30,317.3058,4.1182,1,P1,1,triclinic,-205.4208,-2.7393,-0.0148,intercalated ion,4.0242,True,0.0,,-0.0148,-0.0021
127309,Ca1Hg3O14P4,54c22039e2,CaHg3(P2O7)2,"['O', 'P', 'Ca', 'Hg']",22,309.3719,5.3124,1,P1,1,triclinic,-144.195,-2.2888,-0.0043,intercalated ion,1.869,True,0.0,,-0.0043,-0.0043
127384,Bi9Mo3O24Pr1,54cd79b1ab,PrBi9(MoO8)3,"['O', 'Mo', 'Pr', 'Bi']",37,611.6019,7.3131,1,P1,1,triclinic,-263.7426,-1.9639,-0.0017,3D,2.6356,True,0.0,,-0.0017,-0.0016
127392,Hg1Ir4O13Pb3,54cee363c9,HgIr4Pb3O13,"['O', 'Ir', 'Hg', 'Pb']",21,278.2665,10.7357,3m,R3m,160,trigonal,-139.2866,-1.3413,-0.0102,3D,0.0018,True,0.0,,-0.0102,-0.01
127464,F28Pr4Pt2Ru2,54d923c76b,Pr2RuPtF14,"['F', 'Ru', 'Pr', 'Pt']",36,577.0664,4.857,2,P2_1,4,monoclinic,-211.554,-3.0061,-0.0163,3D,0.0007,True,0.0,,-0.0163,-0.0162
127471,La1Mg2O12Ru2Sr3,54d9d62db6,Sr3LaMg2(RuO6)2,"['O', 'Mg', 'Sr', 'Ru', 'La']",20,252.2469,5.5594,1,P1,1,triclinic,-144.5042,-2.6687,-0.0487,intercalated ion,0.0023,True,-0.0,,-0.0487,-0.016
127579,O24Pr7Ru4Sr1,54eda36918,SrPr7(RuO6)4,"['O', 'Sr', 'Ru', 'Pr']",36,531.4648,5.8185,2,C2,5,monoclinic,-286.9786,-2.6659,-0.0394,intercalated ion,0.0018,True,0.0,,-0.0394,-0.0384
127629,Cl1Lu1Pr19Si15,54f7e40887,Pr19LuSi15Cl,"['Si', 'Cl', 'Pr', 'Lu']",36,957.2674,5.7399,1,P1,1,triclinic,-204.6879,-0.725,-0.0185,3D,,True,-0.0,,-0.0185,-0.0153
127643,Ce2F28Sb2Tc4,54f96ede6d,CeTc2SbF14,"['F', 'Tc', 'Sb', 'Ce']",36,554.628,4.3344,2,P2_1,4,monoclinic,-221.094,-2.9446,-0.0893,3D,,True,0.0,,-0.0893,-0.0893
127646,O1Si6Ti5Zr5,54fa2f5637,Zr5Ti5Si6O,"['O', 'Si', 'Ti', 'Zr']",17,275.563,5.3027,m,Cm,8,monoclinic,-138.7477,-1.1195,-0.0456,3D,,True,-0.0,,-0.0456,-0.045
127648,Ba6Mg2O18Te2Ti2,54fa552b4a,Ba3MgTiTeO9,"['O', 'Mg', 'Ti', 'Te', 'Ba']",30,432.7855,5.7994,6mm,P6_3mc,186,hexagonal,-214.3271,-2.9491,-0.0517,intercalated ion,,False,0.0,,-0.0517,-0.0089
127649,Cl20Gd1Np3Rb8,54fa7b8a06,Rb8GdNp3Cl20,"['Cl', 'Rb', 'Gd', 'Np']",32,1006.6663,3.7297,m,Pm,6,monoclinic,-173.3517,-2.3624,-0.0459,intercalated ion,,True,0.0,,-0.0459,-0.0459
127659,Ho2O16Sb4Tl1Tm1,54fc98c02b,Ho2TmTl(SbO4)4,"['O', 'Sb', 'Ho', 'Tm', 'Tl']",24,306.9846,7.8228,1,P1,1,triclinic,-172.8825,-2.5499,-0.0209,3D,,True,0.0,,-0.0209,-0.0106
127660,Ag2O26P8W2,54fca90386,AgP4WO13,"['O', 'P', 'Ag', 'W']",38,639.8679,3.2366,1,P1,1,triclinic,-292.3444,-2.3371,-0.0083,3D,0.9718,False,0.0,,-0.0083,-0.0062
127670,La2O4Se3Sm2,54fdd9a0b5,La2Sm2Se3O4,"['O', 'Se', 'La', 'Sm']",11,224.3844,6.508,mm2,Amm2,38,orthorhombic,-84.7389,-3.1955,-0.0925,3D,1.3406,True,0.0,,-0.0925,-0.0033
127676,Ba1Ga4O14Si2Sr3,54fe9585f9,BaSr3Ga4(SiO7)2,"['O', 'Si', 'Ga', 'Sr', 'Ba']",24,357.7094,4.4529,1,P1,1,triclinic,-170.8688,-2.9853,-0.0186,intercalated ion,,True,0.0,,-0.0186,-0.014
127679,Ca3F18Ga3Na3,54feb999bc,NaCaGaF6,"['F', 'Na', 'Ca', 'Ga']",27,384.2393,3.1995,32,P321,150,trigonal,-146.1132,-3.431,-0.0284,intercalated ion,6.1453,False,0.0,,-0.0284,-0.0194
127692,F1O11Tb6U1,55010fca17,Tb6UO11F,"['O', 'F', 'Tb', 'U']",19,278.3173,8.2728,1,P1,1,triclinic,-172.0358,-4.0315,-0.0523,3D,0.9007,False,0.0,,-0.0523,-0.0169
127755,Ag1Au4O8Sm1,5509a8cfbd,SmAg(AuO2)4,"['O', 'Ag', 'Sm', 'Au']",14,193.4292,10.0793,-4,I-4,82,tetragonal,-76.1312,-1.1358,-0.0482,3D,0.8443,True,0.0,,-0.0482,-0.0428
127772,Gd6O14W2,550c88b207,Gd3WO7,"['O', 'Gd', 'W']",22,308.3976,8.266,222,C222_1,20,orthorhombic,-255.123,-3.4308,-0.0139,3D,2.2817,True,0.0,,-0.0139,-0.0059
127779,Br3Pb1S24,550de11bf4,Pb(S8Br)3,"['S', 'Br', 'Pb']",28,972.9548,2.0761,3m,R3m,160,trigonal,-123.2933,-0.5498,-0.39,0D,,True,0.0,,-0.39,-0.3888
127790,Cs4F20Pt4,550f854455,CsPtF5,"['F', 'Cs', 'Pt']",28,558.4138,5.0312,mm2,Pmc2_1,26,orthorhombic,-127.0942,-2.1785,-0.0343,intercalated ion,1.8376,True,0.0,,-0.0343,-0.0342
127801,Ba3Ga3O14Si2U1,55120e9cdd,Ba3UGa3(SiO7)2,"['O', 'Si', 'Ga', 'Ba', 'U']",23,354.3777,5.3387,32,P321,150,trigonal,-178.0698,-3.1224,-0.0107,intercalated ion,0.7632,True,0.0,,-0.0107,-0.0106
127804,Ca2O12Pr2Rh4,5512d68d08,CaPr(RhO3)2,"['O', 'Ca', 'Rh', 'Pr']",20,244.7429,6.5513,mm2,Pmn2_1,31,orthorhombic,-148.127,-2.2861,-0.0018,intercalated ion,0.0021,True,0.0,,-0.0018,-0.0018
127815,Br12La3Na1Os1Pr3,55155186e7,NaLa3Pr3OsBr12,"['Na', 'Br', 'La', 'Pr', 'Os']",20,755.5427,4.4209,3,R3,146,trigonal,-101.5945,-2.0125,-0.0284,intercalated ion,0.2497,True,0.0,,-0.0284,-0.0284
127817,Ga1O24P6U3,551626f4c9,U3Ga(PO4)6,"['O', 'P', 'Ga', 'U']",34,552.0493,4.0717,1,P1,1,triclinic,-291.3478,-3.0357,-0.0586,3D,0.7092,True,0.0,,-0.0586,-0.0586
127839,K2O18Si6W2,55192d6c44,KSi3WO9,"['O', 'Si', 'K', 'W']",28,416.9371,3.5939,mm2,Ama2,40,orthorhombic,-231.1764,-2.908,-0.0177,intercalated ion,,True,0.0,,-0.0177,-0.014
127841,Ba7O19Sb1Tc3,551993b97b,Ba7Tc3SbO19,"['O', 'Tc', 'Sb', 'Ba']",30,464.6765,6.0073,m,Cm,8,monoclinic,-220.4197,-2.5922,-0.2097,intercalated ion,0.0082,True,0.0,,-0.2097,-0.2085
127845,F28Pt2Tb3Tc2Tm1,551a2f6fcd,Tb3TmTc2Pt2F28,"['F', 'Tc', 'Tb', 'Tm', 'Pt']",36,529.5421,5.531,1,P1,1,triclinic,-218.0954,-3.1481,-0.0715,3D,1.5185,False,0.0,,-0.0715,-0.0269
127848,C4Cs2O12Rb2,551aae45a2,CsRb(CO3)2,"['C', 'O', 'Rb', 'Cs']",20,440.4702,2.5514,2,P2_1,4,monoclinic,-137.0697,-1.8518,-0.0743,intercalated ion,0.993,True,0.0,,-0.0743,-0.0726
127851,Gd4In6O18Sm2,551ace0a52,SmGd2In3O9,"['O', 'In', 'Sm', 'Gd']",30,446.9633,7.0834,6,P6_3,173,hexagonal,-259.7371,-2.9474,-0.0039,3D,1.8347,True,0.0,,-0.0039,-0.0001
127874,Nb1O16Sb2Ta1Zn6,551f8b11fe,TaNbZn6(SbO8)2,"['O', 'Zn', 'Nb', 'Sb', 'Ta']",26,332.7277,5.8182,1,P1,1,triclinic,-174.3933,-2.2096,-0.0064,3D,2.2328,True,0.0,,-0.0064,-0.0058
127888,Gd7Hf4La1O20,55213ca8fc,LaGd7Hf4O20,"['O', 'La', 'Gd', 'Hf']",32,487.0628,7.7514,m,Pm,6,monoclinic,-370.0437,-3.9933,-0.0184,3D,0.0066,True,0.0,,-0.0184,-0.0141
127942,Ce2F22Hf3V1,552b2b5eb4,Ce2Hf3VF22,"['F', 'V', 'Ce', 'Hf']",28,419.6938,5.0826,m,Cm,8,monoclinic,-206.0724,-4.0428,-0.0065,3D,0.1856,True,0.0,,-0.0065,-0.0065
127955,Cs2O16Rh2Sn6,552cae303f,CsSn3RhO8,"['O', 'Rh', 'Sn', 'Cs']",26,371.6813,6.4328,m,Cm,8,monoclinic,-169.0885,-1.8979,-0.0316,inf,0.4442,True,0.0,,-0.0316,-0.0316
127974,O12Os1Pr5Rh1,5530c5c705,Pr5OsRhO12,"['O', 'Rh', 'Pr', 'Os']",19,289.3235,6.828,2,C2,5,monoclinic,-158.7156,-2.9918,-0.0399,3D,0.0055,True,0.0,,-0.0399,-0.0398
128131,Ca1F10Ga2Sr1,554b7a9af3,SrCaGa2F10,"['F', 'Ca', 'Ga', 'Sr']",14,215.642,3.5201,2,C2,5,monoclinic,-78.0558,-3.5136,-0.0231,intercalated ion,5.6778,True,0.0,,-0.0231,-0.0097
128182,O16Pd3Pt1Zn8,55541f289b,Zn8Pd3PtO16,"['O', 'Zn', 'Pd', 'Pt']",28,323.0627,6.6491,2,P2,3,monoclinic,-150.1553,-1.4035,-0.0446,3D,1.0739,True,0.0,,-0.0446,-0.0222
128183,Al1O24P6W3,555435231f,AlP6(WO8)3,"['O', 'Al', 'P', 'W']",34,479.8621,3.9737,1,P1,1,triclinic,-282.767,-2.6152,-0.0075,intercalated ion,2.4512,True,0.0,,-0.0075,-0.0075
128191,As4Ga1O1Si1Ti10,5555d333fd,Ti10GaSiAs4O,"['O', 'Si', 'Ti', 'Ga', 'As']",17,253.4074,5.8462,1,P1,1,triclinic,-129.7253,-1.1019,-0.0462,3D,0.01,True,0.0,,-0.0462,-0.0459
128209,Eu1Lu1O18V6,5558c5be4e,EuLuV6O18,"['O', 'V', 'Eu', 'Lu']",26,489.8332,3.1207,1,P1,1,triclinic,-227.2281,-2.648,-0.0218,3D,,False,0.0,,-0.0218,-0.0121
128210,Cl2I26P4,5559060314,P2I13Cl,"['P', 'Cl', 'I']",32,1664.6111,3.4858,2,P2_1,4,monoclinic,-79.7087,-0.4604,-0.221,intercalated molecule,,True,0.0,,-0.221,-0.0945
128273,Al4Ca1Cd1O16Si4,556400c2ea,CaAl4Cd(SiO4)4,"['O', 'Al', 'Si', 'Ca', 'Cd']",26,349.6098,2.9864,1,P1,1,triclinic,-203.1813,-3.2462,-0.0049,intercalated ion,,True,-0.0,,-0.0049,-0.0044
128278,Bi6O18Sb1Te2,55643d3ee2,Bi6Sb(TeO9)2,"['O', 'Sb', 'Te', 'Bi']",27,415.5202,7.6682,3,P3,143,trigonal,-168.0382,-1.6748,-0.0248,3D,0.0066,False,0.0,,-0.0248,-0.0219
128287,Mg2O12Pr2Rh2Sr2,5565c8938a,SrPrMgRhO6,"['O', 'Mg', 'Sr', 'Rh', 'Pr']",20,251.2466,5.9712,m,Pc,7,monoclinic,-142.6767,-2.6216,-0.0573,intercalated ion,0.0093,True,0.0,,-0.0573,-0.0222
128339,Ca1O8Pr1Rh3,556d833f7e,CaPrRh3O8,"['O', 'Ca', 'Rh', 'Pr']",13,174.7642,5.8691,m,Cm,8,monoclinic,-95.0458,-2.0448,-0.0063,intercalated ion,0.002,True,-0.0,,-0.0063,-0.0063
128343,Br12La7Si2Sm1,556de87969,La7Sm(SiBr6)2,"['Si', 'Br', 'La', 'Sm']",22,885.142,4.0104,m,Pm,6,monoclinic,-113.4907,-1.9876,-0.0176,3D,0.0161,True,0.0,,-0.0176,-0.0144
128380,Cl30Os3Pu3,55743d523a,PuOsCl10,"['Cl', 'Os', 'Pu']",36,1313.4674,2.9915,1,P1,1,triclinic,-182.5193,-1.4049,-0.2435,0D,,True,-0.0,,-0.2435,-0.1405
128396,F5O2Pb1,5577477406,PbO2F5,"['O', 'F', 'Pb']",8,142.2678,3.9006,1,P1,1,triclinic,-35.2903,-1.5155,-0.0478,intercalated molecule,,True,0.0,,-0.0478,-0.0403
128461,Eu5La2Mo4O24Pb1,55844b64ec,La2Eu5Mo4PbO24,"['O', 'Mo', 'La', 'Eu', 'Pb']",36,512.561,6.5201,2,C2,5,monoclinic,-326.4327,-2.7571,-0.0341,3D,inf,True,-0.0,,-0.0341,-0.0098
128475,Ho1Na4O6Pt1,5585c86bc4,Na4HoPtO6,"['O', 'Na', 'Ho', 'Pt']",12,153.1795,5.9403,2,C2,5,monoclinic,-70.1994,-2.0474,-0.0194,intercalated ion,0.0037,True,0.0,,-0.0194,-0.0188
128487,O6Ru1Ta7Zr18,5587756836,Zr18Ta7RuO6,"['O', 'Zr', 'Ru', 'Ta']",32,577.2629,8.9339,mm2,Amm2,38,orthorhombic,-314.4676,-1.2076,-0.0131,3D,0.0037,True,-0.0,,-0.0131,-0.013
128533,Br18Nb1Rb4Ta5,558dddfad7,Rb4Ta5NbBr18,"['Br', 'Rb', 'Nb', 'Ta']",28,945.4919,4.8785,1,P1,1,triclinic,-144.9588,-1.5065,-0.0151,0D,1.3056,True,-0.0,,-0.0151,-0.0151
128579,Br18C4Cs1La1Sm9,5595c5c5d0,CsLaSm9(C2Br9)2,"['C', 'Br', 'Cs', 'La', 'Sm']",33,1067.639,4.8392,1,P1,1,triclinic,-177.0205,-1.8894,-0.1152,intercalated ion,0.1632,True,0.0,,-0.1152,-0.0378
128580,B2Br12Pr12S2,559644aa3e,Pr6BSBr6,"['B', 'S', 'Br', 'Pr']",28,826.898,5.4933,222,F222,22,orthorhombic,-148.4343,-1.7782,-0.0412,3D,0.004,False,0.0,,-0.0412,-0.0164
128596,Br12La1Os1Sr1Tb5,559a58011a,SrLaTb5OsBr12,"['Br', 'Sr', 'La', 'Tb', 'Os']",20,708.8766,5.0838,1,P1,1,triclinic,-100.949,-2.0141,-0.0573,intercalated ion,0.398,True,0.0,,-0.0573,-0.0284
128643,O18Pb1Sr5Te6,55a2a39e92,Sr5Te6PbO18,"['O', 'Sr', 'Te', 'Pb']",30,598.5319,4.7133,1,P1,1,triclinic,-187.5747,-2.2497,-0.0046,intercalated ion,,False,0.0,,-0.0046,-0.0041
128647,Ca1Hg8La3O4,55a340065b,CaLa3(Hg2O)4,"['O', 'Ca', 'La', 'Hg']",16,383.7444,9.1975,1,P1,1,triclinic,-67.4194,-1.774,-0.0238,intercalated ion,0.0126,True,0.0,,-0.0238,-0.0219
128662,Hf1Nb1O24P6Ta2,55a7841217,HfTa2Nb(PO4)6,"['O', 'P', 'Nb', 'Hf', 'Ta']",34,510.1101,3.9165,1,P1,1,triclinic,-298.3823,-3.0405,-0.0113,3D,0.1589,True,0.0,,-0.0113,-0.0035
128695,B2O18Os2Sm6,55aaf6d244,Sm3BOsO9,"['B', 'O', 'Sm', 'Os']",28,359.3554,7.3575,6,P6_3,173,hexagonal,-239.2404,-3.0733,-0.0028,3D,0.0103,True,0.0,,-0.0028,-0.0016
128736,Al1Ba8O16Ti1V2,55b33af075,Ba8TiAlV2O16,"['O', 'Al', 'Ti', 'V', 'Ba']",28,505.7797,5.0276,1,P1,1,triclinic,-211.9206,-3.1283,-0.0039,intercalated ion,1.0502,True,-0.0,,-0.0039,-0.0039
128780,Br18Pa3Sn3,55b91f09aa,PaSnBr6,"['Br', 'Sn', 'Pa']",24,1112.4775,3.713,32,P3_112,151,trigonal,-109.6701,-1.6514,-0.0204,2D,,True,0.0,,-0.0204,-0.0202
128794,Cl30Nb5U1,55baa516e3,U(NbCl6)5,"['Cl', 'Nb', 'U']",36,1258.7228,2.33,1,P1,1,triclinic,-182.3999,-1.8096,-0.0013,0D,0.6095,True,0.0,,-0.0013,-0.0008
128799,Br12Pr7S2Tb1,55bb9d4663,TbPr7(SBr6)2,"['S', 'Br', 'Pr', 'Tb']",22,798.7797,4.5075,m,Pm,6,monoclinic,-113.6466,-2.165,-0.0488,3D,0.0273,True,0.0,,-0.0488,-0.0183
128800,Br12Li1Na3Np2,55bbad9759,Na3Li(NpBr6)2,"['Li', 'Na', 'Br', 'Np']",18,617.545,4.057,32,P312,149,trigonal,-83.7239,-1.7949,-0.173,intercalated ion,0.0694,True,0.0,,-0.173,-0.0314
128853,F28Lu3Pt4Tm1,55c3a4ba9e,TmLu3Pt4F28,"['F', 'Tm', 'Lu', 'Pt']",36,501.3795,6.6442,1,P1,1,triclinic,-200.9418,-2.9194,-0.0555,3D,2.2381,True,0.0,,-0.0555,-0.0137
128863,Mg1O9P3Rb1,55c5ad1ac8,RbMg(PO3)3,"['O', 'Mg', 'P', 'Rb']",14,231.7548,2.484,32,R32,155,trigonal,-102.6435,-2.8065,-0.0164,intercalated ion,5.2369,True,0.0,,-0.0164,-0.0152
128866,La5O12Ru1Sb1,55c6170e2f,La5SbRuO12,"['O', 'Ru', 'Sb', 'La']",19,299.5707,6.1492,2,C2,5,monoclinic,-158.7421,-3.2254,-0.0172,3D,0.78,True,0.0,,-0.0172,-0.0172
128912,Cl28Mo2,55ce327a50,MoCl14,"['Cl', 'Mo']",30,1262.0853,1.5585,mm2,Fdd2,43,orthorhombic,-100.4262,-0.8992,-0.3139,0D,0.9447,True,0.0,,-0.3139,-0.3132
128914,Bi4La3O22Pr1Ta4,55cea68a56,La3PrTa4(Bi2O11)2,"['O', 'La', 'Pr', 'Ta', 'Bi']",34,515.6833,7.9514,1,P1,1,triclinic,-296.8952,-3.1018,-0.0078,3D,3.2999,True,0.0,,-0.0078,-0.0055
128937,Br16Cl4Cs4N2Nb4Rb2,55d28230df,Cs2RbNb2Br8NCl2,"['N', 'Cl', 'Br', 'Rb', 'Nb', 'Cs']",32,1124.1693,3.726,mm2,Pnn2,34,orthorhombic,-150.045,-1.6825,-0.0507,intercalated ion,,False,0.0,,-0.0507,-0.0347
128972,Br12Si2Sm3Tb5,55d727594d,Tb5Sm3(SiBr6)2,"['Si', 'Br', 'Sm', 'Tb']",22,782.6966,4.7963,m,Pm,6,monoclinic,-109.6281,-1.9003,-0.0308,3D,0.0065,True,0.0,,-0.0308,-0.0253
129016,Ba8Ir3O20Os1,55de64e72d,Ba8Ir3OsO20,"['O', 'Ba', 'Os', 'Ir']",32,503.9579,7.2012,m,Pm,6,monoclinic,-225.5791,-2.2977,-0.0878,intercalated ion,0.0073,True,-0.0,,-0.0878,-0.0632
129043,Br6Li1Na1Zr1,55e39c76c1,NaLiZrBr6,"['Li', 'Na', 'Br', 'Zr']",9,294.2835,3.3889,32,P312,149,trigonal,-38.1884,-1.8431,-0.0291,intercalated ion,2.8656,True,0.0,,-0.0291,-0.0063
129056,O24P8Te2,55e5428a4f,Te(PO3)4,"['O', 'P', 'Te']",34,468.7144,3.1423,2,P2_1,4,monoclinic,-248.0014,-2.3429,-0.0247,3D,,True,0.0,,-0.0247,-0.0245
129128,Au9Mg6O18Sb3,55f2377492,Mg2Sb(AuO2)3,"['O', 'Mg', 'Sb', 'Au']",36,484.5735,8.8131,32,P3_112,151,trigonal,-202.0919,-1.7104,-0.009,3D,0.2294,False,0.0,,-0.009,-0.008
129160,F12La3Pr1,55f9209c35,La3PrF12,"['F', 'La', 'Pr']",16,232.5137,5.6105,m,Pm,6,monoclinic,-114.145,-4.4761,-0.004,3D,6.1865,True,0.0,,-0.004,-0.004
129173,Ca1Na4Np1O6,55fc665061,Na4CaNpO6,"['O', 'Na', 'Ca', 'Np']",12,165.9924,4.6521,2,C2,5,monoclinic,-82.4907,-2.7133,-0.0196,intercalated ion,0.8242,True,0.0,,-0.0196,-0.0189
129188,Ag4Nb4O52P16,5600571a22,NbAgP4O13,"['O', 'P', 'Nb', 'Ag']",76,1094.6289,3.2322,222,P2_12_12_1,19,orthorhombic,-587.5596,-2.5252,-0.0252,3D,,True,0.0,,-0.0252,-0.0248
129212,Ba6O12Sc2Tm1Y1,5603866455,Ba6YTmSc2O12,"['O', 'Sc', 'Y', 'Ba', 'Tm']",22,380.5599,5.9504,32,R32,155,trigonal,-169.3091,-3.4006,-0.018,intercalated ion,3.3489,True,0.0,,-0.018,-0.0064
129257,Cl15P1Pa1Zr5,560cdb453f,Zr5PaPCl15,"['P', 'Cl', 'Zr', 'Pa']",22,583.5357,3.5568,4mm,I4mm,107,tetragonal,-133.5887,-2.1906,-0.0513,3D,,False,0.0,,-0.0513,-0.048
129283,Bi1O20Pr7Si4,560fee0ff1,Pr7Si4BiO20,"['O', 'Si', 'Pr', 'Bi']",32,463.2091,5.8349,1,P1,1,triclinic,-270.6436,-3.5196,-0.0344,3D,4.0276,True,0.0,,-0.0344,-0.0021
129301,Ge12O60Ta12Tl12,5614addc51,TaTlGeO5,"['O', 'Ge', 'Ta', 'Tl']",96,1659.3958,6.4601,222,P2_12_12_1,19,orthorhombic,-760.9586,-2.4919,-0.0198,intercalated ion,,True,0.0,,-0.0198,-0.0111
129401,Cu4La1Li1O8,56245b22a1,LiLa(CuO2)4,"['Li', 'O', 'Cu', 'La']",14,161.587,5.4262,-4,I-4,82,tetragonal,-85.3652,-1.61,-0.0234,intercalated ion,0.6577,True,0.0,,-0.0234,-0.015
129417,F20Rb2Tb5Y1,56265d3a5c,Rb2Tb5YF20,"['F', 'Rb', 'Y', 'Tb']",28,408.5419,5.8303,4mm,I4mm,107,tetragonal,-189.9274,-4.2892,-0.0085,intercalated ion,7.0749,False,0.0,,-0.0085,-0.0016
129431,O12Pr5Pu1Th1,5628f5329d,Pr5PuThO12,"['O', 'Pr', 'Th', 'Pu']",19,311.028,7.328,1,P1,1,triclinic,-177.4652,-3.816,-0.0921,3D,,False,0.0,,-0.0921,-0.0241
129487,Br1Pr20Si15,5630f4ca83,Pr20Si15Br,"['Si', 'Br', 'Pr']",36,973.7908,5.6602,1,P1,1,triclinic,-203.8175,-0.6995,-0.0142,3D,0.0011,True,0.0,,-0.0142,-0.0104
129525,Ba4O18Pt2Rh4,56379ec405,Ba2PtRh2O9,"['O', 'Rh', 'Ba', 'Pt']",28,439.0479,6.1993,1,P1,1,triclinic,-187.0614,-1.7401,-0.0867,intercalated ion,,True,0.0,,-0.0867,-0.0599
129584,Eu2Ho1O14Ta2Tl2Tm1,5642776633,Eu2HoTmTa2Tl2O14,"['O', 'Eu', 'Ho', 'Tm', 'Ta', 'Tl']",22,303.7372,8.9246,m,Pm,6,monoclinic,-194.6051,-3.0569,-0.0304,3D,,True,0.0,,-0.0304,-0.0097
129607,Au1O6Ta7Zr18,564545d1a7,Zr18Ta7AuO6,"['O', 'Zr', 'Ta', 'Au']",32,580.155,9.1638,mm2,Amm2,38,orthorhombic,-308.3002,-1.2024,-0.0157,3D,0.0037,True,0.0,,-0.0157,-0.0099
129654,F20N2Sb1V1,564dac2f98,VSb(NF10)2,"['N', 'F', 'V', 'Sb']",24,369.6201,2.6088,1,P1,1,triclinic,-110.7749,-1.7775,-0.3274,0D,3.197,True,-0.0,,-0.3274,-0.1436
129677,Br2Cs12Ho2Se8,565170652b,Cs6HoSe4Br,"['Se', 'Br', 'Cs', 'Ho']",24,1056.931,4.2674,6mm,P6_3mc,186,hexagonal,-89.7511,-1.6083,-0.0623,intercalated ion,2.3453,True,0.0,,-0.0623,-0.0158
129719,Ga1Nb3O24P6,5656cd5c26,Nb3Ga(PO4)6,"['O', 'P', 'Ga', 'Nb']",34,494.4364,3.084,1,P1,1,triclinic,-280.2744,-2.815,-0.023,intercalated ion,2.7341,True,-0.0,,-0.023,-0.0049
129740,Cl12Ir1Se1V1,565a1de0bf,VIrSeCl12,"['Cl', 'V', 'Se', 'Ir']",15,464.295,2.6736,m,Cm,8,monoclinic,-60.6225,-1.1348,-0.0112,0D,,True,0.0,,-0.0112,-0.001
129785,F22Hf3U2Zr1,5663f14a01,Hf3ZrU2F22,"['F', 'Zr', 'Hf', 'U']",28,440.7793,5.729,m,Cm,8,monoclinic,-216.0756,-4.0365,-0.041,3D,0.1724,True,-0.0,,-0.041,-0.041
129854,Cl18Nb2Pb1Ta4,56721c6f89,Ta4Nb2PbCl18,"['Cl', 'Nb', 'Ta', 'Pb']",25,701.7845,4.1525,1,P1,1,triclinic,-147.4825,-1.7145,-0.0041,intercalated ion,,False,0.0,,-0.0041,-0.0031