Unnamed: 0,Composition,MaterialId,Reduced Formula,Elements,NSites,Volume,Density,Point Group,Space Group,Space Group Number,Crystal System,Corrected Energy,Formation Energy Per Atom,Decomposition Energy Per Atom,Dimensionality Cheon,Bandgap,Is Train,Decomposition Energy Per Atom All,Decomposition Energy Per Atom Relative,Decomposition Energy Per Atom MP,Decomposition Energy Per Atom MP OQMD
140459,O28Pr2S8,5d84796ca2,Pr(S2O7)2,"['O', 'S', 'Pr']",38,610.1854,2.6841,1,P1,1,triclinic,-257.6431,-2.0118,-0.0093,3D,0.002,False,0.0,,-0.0093,-0.009
140478,As1Br10F1,5d87ec0e56,AsBr10F,"['F', 'As', 'Br']",12,577.5508,2.5674,1,P1,1,triclinic,-32.7288,-0.8157,-0.3437,intercalated molecule,,False,0.0,,-0.3437,-0.3037
140533,As1Cl15Pa1Zr5,5d9269bfd3,Zr5PaAsCl15,"['Cl', 'As', 'Zr', 'Pa']",22,582.7415,3.6869,4mm,I4mm,107,tetragonal,-131.3628,-2.1238,-0.0054,3D,0.2939,True,0.0,,-0.0054,-0.005
140548,F28Hf4Tb3Y1,5d94321052,Tb3YHf4F28,"['F', 'Y', 'Tb', 'Hf']",36,559.6187,5.3755,1,P1,1,triclinic,-269.4298,-4.3253,-0.0053,3D,7.0335,True,0.0,,-0.0053,-0.0033
140609,Br12K1Rb3U2,5d9f1490e1,KRb3(UBr6)2,"['K', 'Br', 'Rb', 'U']",18,689.0133,4.1703,1,P1,1,triclinic,-81.2551,-1.9432,-0.0186,intercalated ion,,False,0.0,,-0.0186,-0.0182
140651,Hf4O2Zn12Zr8,5da42bb5fd,Hf2Zr4Zn6O,"['O', 'Zn', 'Zr', 'Hf']",26,437.0129,8.5899,m,Cm,8,monoclinic,-151.9178,-0.719,-0.0156,3D,0.0003,True,-0.0,,-0.0156,-0.0148
140658,Hf4O20Se4,5da535ca55,HfSeO5,"['O', 'Se', 'Hf']",28,478.5413,4.6838,222,P2_12_12_1,19,orthorhombic,-217.5969,-2.3152,-0.0807,3D,2.9251,True,0.0,,-0.0807,-0.0776
140705,Eu1F20Ho3K2Tb2,5dac0378bd,K2Tb2EuHo3F20,"['F', 'K', 'Eu', 'Tb', 'Ho']",28,400.6234,5.8972,mm2,Fmm2,42,orthorhombic,-191.9293,-4.2204,-0.0176,intercalated ion,4.1772,True,0.0,,-0.0176,-0.007
140713,F14Pu2Ti2,5dad04dd93,PuTiF7,"['F', 'Ti', 'Pu']",18,271.9619,5.1882,2,P2_1,4,monoclinic,-140.6105,-3.8624,-0.045,3D,,False,0.0,,-0.045,-0.0449
140718,Ce2Li12O48Pr10W8,5dae09c7a0,Li6CePr5(WO6)4,"['Li', 'O', 'Ce', 'Pr', 'W']",80,1020.3042,6.5284,2,C2,5,monoclinic,-661.17,-2.9678,-0.0336,intercalated ion,,True,0.0,,-0.0336,-0.0264
140730,Nb3O18Pb3Ta2W1,5dafcfd78c,Ta2Nb3Pb3WO18,"['O', 'Nb', 'Ta', 'W', 'Pb']",27,391.0341,7.3637,1,P1,1,triclinic,-240.6359,-2.7206,-0.0057,3D,,True,0.0,,-0.0057,-0.0018
140747,F12Sb1V1Zn1,5db3e19e49,VZnSbF12,"['F', 'V', 'Zn', 'Sb']",15,225.8054,3.4276,1,P1,1,triclinic,-78.054,-2.7096,-0.0363,1D,,True,0.0,,-0.0363,-0.0354
140793,O12Rb2U4,5dbdba291e,RbU2O6,"['O', 'Rb', 'U']",18,355.062,6.1501,mm2,Ima2,46,orthorhombic,-169.2127,-3.4839,-0.015,intercalated ion,0.2011,True,0.0,,-0.015,-0.012
140798,La1O14Ru2Tm5,5dbe76f81b,LaTm5(RuO7)2,"['O', 'Ru', 'La', 'Tm']",22,295.0255,7.9345,2,C2,5,monoclinic,-186.3408,-3.2366,-0.0209,3D,,True,0.0,,-0.0209,-0.0209
140816,Ba3K1O12U3Y1,5dc1fe6825,KBa3YU3O12,"['O', 'K', 'Y', 'Ba', 'U']",20,338.181,7.1005,1,P1,1,triclinic,-177.5729,-3.5495,-0.0152,intercalated ion,0.0002,True,0.0,,-0.0152,-0.0044
140872,F4O4Tb3Y1,5dcaf272ed,Tb3Y(OF)4,"['O', 'F', 'Y', 'Tb']",12,176.9125,6.6236,1,P1,1,triclinic,-98.9906,-4.2653,-0.0092,3D,4.9073,True,0.0,,-0.0092,-0.0058
140880,F28Ho2Ru4Tm2,5dcc38fe40,HoTmRu2F14,"['F', 'Ru', 'Ho', 'Tm']",36,517.7471,5.1443,2,P2_1,4,monoclinic,-221.2192,-3.1245,-0.1137,3D,0.0001,True,0.0,,-0.1137,-0.0255
140881,Br4Pt3Rh1Te4,5dcc42ee3c,Te4Pt3RhBr4,"['Br', 'Rh', 'Te', 'Pt']",12,345.0342,7.3065,mm2,Pmm2,25,orthorhombic,-53.525,-0.7356,-0.1596,3D,0.0578,True,0.0,,-0.1596,-0.0083
140891,Br8S32Te2,5dce2d783a,Te(S4Br)4,"['S', 'Br', 'Te']",42,1557.2135,2.0479,mm2,Fdd2,43,orthorhombic,-174.7973,-0.5488,-0.2261,0D,,True,0.0,,-0.2261,-0.2259
140908,C15F3Th20,5dd0b2211a,Th20(C5F)3,"['C', 'F', 'Th']",38,761.4266,10.6379,1,P1,1,triclinic,-319.0805,-0.7018,-0.0159,3D,inf,True,-0.0,,-0.0159,-0.0069
140918,Gd3O16Os4Sm1,5dd1717afc,SmGd3(OsO4)4,"['O', 'Sm', 'Gd', 'Os']",24,308.5235,8.8216,1,P1,1,triclinic,-231.4728,-2.5162,-0.0497,3D,,True,0.0,,-0.0497,-0.0423
140944,As1O1Sb1Sr4,5dd5ae8948,Sr4SbAsO,"['O', 'As', 'Sr', 'Sb']",7,209.2736,4.4686,4mm,I4mm,107,tetragonal,-32.5263,-1.7189,-0.03,intercalated ion,1.1472,False,0.0,,-0.03,-0.001
140948,F9Hf3O3V1,5dd6cfa2e9,Hf3V(OF3)3,"['O', 'F', 'V', 'Hf']",16,257.6392,5.1909,1,P1,1,triclinic,-133.0122,-3.8756,-0.0047,3D,1.911,True,0.0,,-0.0047,-0.0033
140978,Ir3O24Pr8Ru1,5dda6c99e5,Pr8Ir3RuO24,"['O', 'Ru', 'Pr', 'Ir']",36,532.4128,6.8272,1,P1,1,triclinic,-288.9403,-2.6709,-0.0472,3D,0.0025,True,0.0,,-0.0472,-0.0443
141024,Bi2O20Pr6Si4,5de10fdc08,Pr3Si2BiO10,"['O', 'Si', 'Pr', 'Bi']",32,462.9757,6.082,2,P2_1,4,monoclinic,-264.2139,-3.3465,-0.0249,3D,3.6026,True,0.0,,-0.0249,-0.0034
141037,La2Lu3O14Ta2Y1,5de37d5a17,La2YLu3Ta2O14,"['O', 'Y', 'La', 'Lu', 'Ta']",22,299.5429,8.1907,m,Pm,6,monoclinic,-208.6357,-3.8976,-0.0129,3D,3.6166,True,-0.0,,-0.0129,-0.0129
141038,Ir4O24Pb1Pr7,5de380e818,Pr7Ir4PbO24,"['O', 'Pr', 'Ir', 'Pb']",36,532.5244,7.3167,1,P1,1,triclinic,-280.67,-2.483,-0.0721,3D,,True,0.0,,-0.0721,-0.0585
141106,Bi1Ga8O18Sb3,5def0a09de,Ga8Bi(SbO6)3,"['O', 'Ga', 'Sb', 'Bi']",30,401.4424,5.8739,m,Pm,6,monoclinic,-192.3828,-2.0939,-0.0025,3D,2.7896,True,0.0,,-0.0025,-0.0025
141150,Cu1O4Pt7Sc16,5df65ea38e,Sc16CuPt7O4,"['O', 'Sc', 'Cu', 'Pt']",28,471.7206,7.7881,3m,R3m,160,trigonal,-214.9063,-1.6857,-0.0099,3D,0.0028,False,0.0,,-0.0099,-0.0091
141166,Br18C4Pr1Rb1Y9,5df84da02f,RbPrY9(C2Br9)2,"['C', 'Br', 'Rb', 'Y', 'Pr']",33,1007.6823,4.1409,1,P1,1,triclinic,-192.7623,-1.8918,-0.0554,intercalated ion,,True,0.0,,-0.0554,-0.0277
141186,Cl28Pb4W6,5dfbddde4e,Pb2W3Cl14,"['Cl', 'W', 'Pb']",38,1047.1927,4.6374,6,P6_3,173,hexagonal,-196.566,-1.3739,-0.0076,intercalated molecule,0.807,True,0.0,,-0.0076,-0.0055
141190,F12Ir1Sb1Sr1,5dfd17f1ae,SrSbIrF12,"['F', 'Sr', 'Sb', 'Ir']",15,264.4164,3.9538,1,P1,1,triclinic,-77.5172,-2.6615,-0.0728,intercalated ion,,True,0.0,,-0.0728,-0.0082
141257,Cl18Rb1Ta6Y1,5e07ff03e7,RbYTa6Cl18,"['Cl', 'Rb', 'Y', 'Ta']",26,680.9958,4.6286,3,R3,146,trigonal,-161.5793,-1.912,-0.0076,intercalated ion,1.4532,True,0.0,,-0.0076,-0.0062
141291,K2O12Pa1Te3,5e0ea6a4c2,K2Pa(TeO4)3,"['O', 'K', 'Te', 'Pa']",18,306.4352,4.7904,2,C2,5,monoclinic,-118.9035,-2.1313,-0.0345,intercalated ion,0.0387,True,0.0,,-0.0345,-0.0333
141342,Np1O12Tb4Y2,5e17655eec,Tb4Y2NpO12,"['O', 'Y', 'Tb', 'Np']",19,275.547,7.4878,1,P1,1,triclinic,-178.2263,-3.9175,-0.14,3D,0.8012,True,0.0,,-0.14,-0.1384
141397,Li4O16Ta2V6,5e205b6dc1,Li2TaV3O8,"['Li', 'O', 'V', 'Ta']",28,302.7291,5.2181,6mm,P6_3mc,186,hexagonal,-241.7486,-2.7402,-0.0051,intercalated ion,1.7368,True,0.0,,-0.0051,-0.0023
141422,Gd3Ho5Mo4O24,5e25009d45,Gd3Ho5(MoO6)4,"['O', 'Mo', 'Gd', 'Ho']",36,463.2938,7.3983,2,P2,3,monoclinic,-341.768,-3.1804,-0.0025,3D,2.5091,True,0.0,,-0.0025,-0.0025
141449,Ba3O2Sb4Sr5,5e2a739004,Ba3Sr5(Sb2O)2,"['O', 'Sr', 'Sb', 'Ba']",14,465.9868,4.8788,mm2,Amm2,38,orthorhombic,-65.0551,-1.7456,-0.0795,intercalated ion,0.6573,True,0.0,,-0.0795,-0.0022
141476,B2C2Cl12Y12,5e2e3d8d0a,Y6BCCl6,"['B', 'C', 'Cl', 'Y']",28,635.1683,4.0207,222,F222,22,orthorhombic,-182.1057,-1.804,-0.0667,3D,0.0047,True,0.0,,-0.0667,-0.0108
141486,In6La1O18Pr5,5e30c77072,LaPr5In6O18,"['O', 'In', 'La', 'Pr']",30,474.0651,6.3762,3m,P31m,157,trigonal,-221.2283,-2.8938,-0.0155,3D,2.1101,True,-0.0,,-0.0155,-0.0137
141583,Ba1Ca7O20Sb8,5e4048d01f,BaCa7(Sb2O5)4,"['O', 'Ca', 'Sb', 'Ba']",36,635.3853,4.474,m,Pm,6,monoclinic,-239.0616,-2.5309,-0.0401,intercalated ion,2.0171,False,0.0,,-0.0401,-0.0401
141610,Br12C1Ti5Zr1,5e4659c32d,ZrTi5CBr12,"['C', 'Ti', 'Br', 'Zr']",19,539.4092,4.0063,1,P1,1,triclinic,-106.818,-1.5749,-0.0639,1D,0.121,True,0.0,,-0.0639,-0.0266
141640,F28Sb1Tc4Y3,5e4a5f8d4b,Y3Tc4SbF28,"['F', 'Y', 'Tc', 'Sb']",36,572.6545,3.8057,1,P1,1,triclinic,-231.6183,-3.1424,-0.0762,3D,,False,0.0,,-0.0762,-0.0762
141642,Br12C2Cs2Pr1Y5,5e4ac4cc13,Cs2PrY5(CBr6)2,"['C', 'Br', 'Y', 'Cs', 'Pr']",22,711.9764,4.2777,1,P1,1,triclinic,-119.9698,-1.9531,-0.0473,intercalated ion,0.7053,True,0.0,,-0.0473,-0.0196
141660,Cl2I18P4,5e4e36141f,P2I9Cl,"['P', 'Cl', 'I']",24,1188.509,3.4637,mm2,Pma2,28,orthorhombic,-64.5947,-0.4922,-0.173,intercalated ion,,True,0.0,,-0.173,-0.0129
141684,F14La2Pb2,5e53f4b1f7,LaPbF7,"['F', 'La', 'Pb']",18,328.9175,4.8374,2,P2_1,4,monoclinic,-102.8327,-3.2653,-0.0471,3D,3.1128,False,0.0,,-0.0471,-0.047
141685,Br8In1Rb3Zn2,5e5441f727,Rb3Zn2InBr8,"['Zn', 'Br', 'Rb', 'In']",14,534.8389,3.5434,m,Pm,6,monoclinic,-43.4854,-1.5841,-0.0047,intercalated ion,3.3891,True,0.0,,-0.0047,-0.0017
141701,Ba4Cl2O6Tl1Tm1,5e56f6200f,Ba4TmTl(ClO3)2,"['O', 'Cl', 'Ba', 'Tm', 'Tl']",14,292.5183,6.1849,4mm,P4mm,99,tetragonal,-87.7353,-2.8455,-0.0364,intercalated ion,0.3208,True,0.0,,-0.0364,-0.0113
141718,B1Br12Si3Sm12,5e593a4d6b,Sm12Si3BBr12,"['B', 'Si', 'Br', 'Sm']",28,822.217,5.7725,32,R32,155,trigonal,-143.8981,-1.5956,-0.0895,3D,0.0028,False,0.0,,-0.0895,-0.0723
141782,Br12Ho1Si2Sm7,5e63e9c885,Sm7Ho(SiBr6)2,"['Si', 'Br', 'Sm', 'Ho']",22,802.0565,4.622,m,Pm,6,monoclinic,-109.7175,-1.8914,-0.0744,3D,0.0075,True,0.0,,-0.0744,-0.0629
141789,F36K12O16P4Ti8Tl4,5e64c6e0f2,K3Ti2TlPO4F9,"['O', 'F', 'P', 'K', 'Ti', 'Tl']",80,1306.2725,3.4748,1,P1,1,triclinic,-515.6259,-3.2507,-0.0018,intercalated ion,,True,0.0,,-0.0018,-0.0015
141792,Al5Ga3O32Pb4Si8,5e64edc37b,Al5Ga3Si8(PbO8)4,"['O', 'Al', 'Si', 'Ga', 'Pb']",52,747.8326,4.2401,1,P1,1,triclinic,-396.7112,-2.9291,-0.0032,3D,4.1679,True,-0.0,,-0.0032,-0.0032
141826,Cu1O12Pd1Rh2Sr6,5e6a63ce34,Sr6CuPd(RhO6)2,"['O', 'Cu', 'Sr', 'Rh', 'Pd']",22,314.9605,5.7651,2,C2,5,monoclinic,-143.2012,-2.2582,-0.0035,intercalated ion,0.0007,True,0.0,,-0.0035,-0.0035
141889,Ag2O24P6Sn2Ti2,5e75836ff8,TiAgSn(PO4)3,"['O', 'P', 'Ti', 'Ag', 'Sn']",36,492.4061,3.7727,2,C2,5,monoclinic,-273.7589,-2.5848,-0.0273,3D,2.0754,True,0.0,,-0.0273,-0.0231
141891,Ce1Ho4La1O14Ta2,5e75dd9145,LaCeHo4Ta2O14,"['O', 'La', 'Ce', 'Ho', 'Ta']",22,305.0676,8.2988,2,C2,5,monoclinic,-207.2734,-3.8676,-0.021,3D,0.0018,True,0.0,,-0.021,-0.0152
141898,Cl6Eu1Np1,5e77329b9d,EuNpCl6,"['Cl', 'Eu', 'Np']",8,321.06,3.1119,2,C2,5,monoclinic,-53.9148,-2.448,-0.1774,2D,,True,0.0,,-0.1774,-0.0735
141901,Ac1O14Ta2Tb2Y3,5e777ddc8a,AcTb2Y3Ta2O14,"['O', 'Y', 'Tb', 'Ta', 'Ac']",22,303.0642,7.6569,1,P1,1,triclinic,-210.3142,-3.8426,-0.025,3D,,True,0.0,,-0.025,-0.0247
141906,Ce1F28La4V3,5e7804ebbe,La4CeV3F28,"['F', 'V', 'La', 'Ce']",36,592.5656,3.8686,1,P1,1,triclinic,-244.6245,-3.8382,-0.0246,3D,,True,0.0,,-0.0246,-0.0244
141953,Ba4Ir2O18Pd4,5e7fe367ed,Ba2IrPd2O9,"['O', 'Pd', 'Ba', 'Ir']",28,439.0479,6.2307,1,P1,1,triclinic,-181.7059,-1.6632,-0.1128,intercalated ion,0.0008,True,0.0,,-0.1128,-0.0353
141967,F24Np2,5e825728ea,NpF12,"['F', 'Np']",26,564.219,2.7369,6,P6_3,173,hexagonal,-125.7304,-2.0754,-0.2076,0D,0.9054,True,0.0,,-0.2076,-0.2075
142019,As1Ho5O12Rh1,5e8c5e5cad,Ho5AsRhO12,"['O', 'As', 'Rh', 'Ho']",19,247.0504,8.0286,2,C2,5,monoclinic,-155.5965,-3.2256,-0.0089,3D,0.0018,True,0.0,,-0.0089,-0.0089
142064,Ba10O20Os1Tc3,5e924e4a7a,Ba10Tc3OsO20,"['O', 'Tc', 'Ba', 'Os']",34,578.5196,6.2501,m,Cm,8,monoclinic,-248.799,-2.5983,-0.0591,intercalated ion,0.0014,True,0.0,,-0.0591,-0.0528
142066,O12Rb2Se3Zr1,5e927762e0,Rb2Zr(SeO4)3,"['O', 'Se', 'Rb', 'Zr']",18,362.7585,3.1632,2,C2,5,monoclinic,-113.1627,-1.8217,-0.0373,intercalated ion,3.6649,True,0.0,,-0.0373,-0.0168
142080,Cl8H8In1N2Tl1,5e949760db,TlInH8(NCl4)2,"['H', 'N', 'Cl', 'In', 'Tl']",20,410.7058,2.5832,-4,I-4,82,tetragonal,-84.024,-1.0154,-0.0488,0D,2.6904,True,0.0,,-0.0488,-0.0021
142085,Na2O14Se4Ta2,5e954059e8,NaTaSe2O7,"['O', 'Na', 'Se', 'Ta']",22,328.1327,4.7959,mm2,Cmc2_1,36,orthorhombic,-155.4362,-2.0828,-0.0535,intercalated ion,3.2565,True,0.0,,-0.0535,-0.0534
142086,Br6Mg1Pd1,5e9549b504,MgPdBr6,"['Mg', 'Br', 'Pd']",8,252.5526,4.0117,2,C2,5,monoclinic,-25.4165,-1.1018,-0.1419,2D,,False,0.0,,-0.1419,-0.0194
142157,Br12Na1Pr5Pt1Sm1,5e9f2a7064,NaPr5SmPtBr12,"['Na', 'Br', 'Pr', 'Sm', 'Pt']",20,737.0785,4.5774,1,P1,1,triclinic,-96.5186,-2.0429,-0.0144,intercalated ion,0.0121,True,0.0,,-0.0144,-0.0137
142172,Bi1O24Tb7Te4,5ea1576009,Tb7Bi(TeO6)4,"['O', 'Te', 'Tb', 'Bi']",36,493.5031,7.4559,1,P1,1,triclinic,-270.2316,-2.8494,-0.1883,3D,,True,0.0,,-0.1883,-0.188
142222,F9H5V1,5ea83d30cb,VH5F9,"['H', 'F', 'V']",15,202.1458,1.8644,1,P1,1,triclinic,-76.0229,-2.1848,-0.0522,intercalated molecule,2.6902,True,-0.0,,-0.0522,-0.0362
142245,O24P6Ti1U3,5eabab73fe,U3Ti(PO4)6,"['O', 'P', 'Ti', 'U']",34,557.3914,3.9675,3,R3,146,trigonal,-299.619,-3.1358,-0.0295,3D,,True,0.0,,-0.0295,-0.0288
142303,Gd2Ho2La2O14Ta2,5eb8454407,LaGdHoTaO7,"['O', 'La', 'Gd', 'Ho', 'Ta']",22,311.2245,8.0463,2,P2_1,4,monoclinic,-225.1423,-3.8621,-0.0233,3D,3.1356,True,0.0,,-0.0233,-0.0233
142325,Cu4In1Li1O8,5ebadd8adb,LiIn(CuO2)4,"['Li', 'O', 'Cu', 'In']",14,145.4125,5.7547,-4,I-4,82,tetragonal,-77.8662,-1.2304,-0.0124,intercalated ion,0.4778,False,0.0,,-0.0124,-0.0109
142397,Bi6Br2Ce4La1Pr5,5ec5e67a0b,LaCe4Pr5(Bi3Br)2,"['Br', 'La', 'Ce', 'Pr', 'Bi']",18,540.5889,8.6549,mm2,Amm2,38,orthorhombic,-97.6563,-1.0261,-0.0216,3D,0.0007,True,-0.0,,-0.0216,-0.0041
142398,Bi3F28Pr1Pt4,5ec619066e,PrBi3Pt4F28,"['F', 'Pr', 'Pt', 'Bi']",36,562.8608,6.1368,1,P1,1,triclinic,-179.2495,-2.3609,-0.0532,3D,2.1392,True,0.0,,-0.0532,-0.0532
142471,Cd2Li4O16Tc6,5ed3c4bbeb,Li2CdTc3O8,"['Li', 'O', 'Tc', 'Cd']",28,303.0441,6.0087,6mm,P6_3mc,186,hexagonal,-205.0345,-1.9361,-0.0419,intercalated ion,,True,-0.0,,-0.0419,-0.0362
142473,Ac2O18P6,5ed3daba4f,Ac(PO3)3,"['O', 'P', 'Ac']",26,395.0162,3.9003,222,C222_1,20,orthorhombic,-208.4778,-3.0266,-0.3373,3D,5.3267,True,0.0,,-0.3373,-0.3373
142498,Au2Ba10O30Re6,5ed8a610ee,Ba5Re3AuO15,"['O', 'Ba', 'Re', 'Au']",48,809.0385,6.9054,6mm,P6_3cm,185,hexagonal,-374.518,-2.6182,-0.0326,intercalated ion,,True,-0.0,,-0.0326,-0.0279
142550,Br10C2La5Tb1,5ee15193b5,La5Tb(CBr5)2,"['C', 'Br', 'La', 'Tb']",18,606.7881,4.588,1,P1,1,triclinic,-99.5557,-1.9677,-0.0104,3D,0.3611,True,0.0,,-0.0104,-0.0104
142582,Np3O10Sm1,5ee5fe6061,SmNp3O10,"['O', 'Sm', 'Np']",14,226.6245,7.4837,2,C2,5,monoclinic,-141.3868,-3.4532,-0.1766,3D,0.0755,True,0.0,,-0.1766,-0.1384
142595,Cs4F20Pb4,5ee84a8344,CsPbF5,"['F', 'Cs', 'Pb']",28,596.8912,4.8417,222,P2_12_12_1,19,orthorhombic,-128.3829,-2.5615,-0.1786,intercalated ion,2.7542,True,0.0,,-0.1786,-0.0228
142609,Gd3O12Sc1Tb3Y1,5eead15cbf,Tb3Gd3YScO12,"['O', 'Sc', 'Y', 'Gd', 'Tb']",20,303.5934,6.9704,1,P1,1,triclinic,-207.4468,-3.957,-0.0069,3D,3.4689,True,0.0,,-0.0069,-0.0042
142679,Cl8Pb1,5ef7e9117a,PbCl8,"['Cl', 'Pb']",9,323.3094,2.5209,1,P1,1,triclinic,-26.6386,-0.9042,-0.2889,intercalated molecule,2.5301,True,0.0,,-0.2889,-0.2886
142717,Ho1La2O24W4Y5,5efdfdeddf,La2Y5Ho(WO6)4,"['O', 'Y', 'La', 'Ho', 'W']",36,481.631,6.9183,1,P1,1,triclinic,-336.084,-3.2976,-0.0016,3D,3.6218,True,0.0,,-0.0016,-0.0015
142718,Br1N12P6Y1Zn2,5efe0bc1f2,YZn2P6BrN12,"['N', 'P', 'Zn', 'Br', 'Y']",22,302.549,3.587,m,Cm,8,monoclinic,-161.17,-0.8195,-0.0988,3D,,False,0.0,,-0.0988,-0.097
142724,Li2O12Sm2Sr2Te2,5eff54c96b,SrLiSmTeO6,"['Li', 'O', 'Sr', 'Te', 'Sm']",20,256.9743,6.055,m,Pc,7,monoclinic,-136.7979,-2.7251,-0.0048,intercalated ion,3.2694,True,0.0,,-0.0048,-0.0021
142846,F34S1U1,5f14341310,USF34,"['F', 'S', 'U']",36,691.7999,2.1988,1,P1,1,triclinic,-130.748,-1.3981,-0.2715,0D,,True,0.0,,-0.2715,-0.2711
142877,O24P6Sn2Ti3,5f1a3487c0,Ti3Sn2(PO4)6,"['O', 'P', 'Ti', 'Sn']",35,484.7228,3.2574,3,R3,146,trigonal,-282.3537,-2.8405,-0.018,3D,,False,0.0,,-0.018,-0.0163
142918,As3Br18Cs6Gd1,5f2011048a,Cs6Gd(AsBr6)3,"['As', 'Br', 'Cs', 'Gd']",28,1078.5372,4.0303,3m,P3m1,156,trigonal,-108.9868,-1.6456,-0.0647,intercalated ion,,True,0.0,,-0.0647,-0.016
142924,Ba6Ir1O18Sc2Te2,5f20f566ec,Ba6Sc2Te2IrO18,"['O', 'Sc', 'Te', 'Ba', 'Ir']",29,432.0315,6.3391,mm2,Imm2,44,orthorhombic,-207.4732,-2.7278,-0.058,intercalated ion,0.4757,True,0.0,,-0.058,-0.0476
142931,F28Ho3Pr1Zr4,5f2246462f,PrHo3Zr4F28,"['F', 'Zr', 'Pr', 'Ho']",36,573.3683,4.4384,1,P1,1,triclinic,-258.5835,-4.2318,-0.0039,3D,,True,0.0,,-0.0039,-0.0021
142935,Gd5Ho1Mo2O12,5f231281a7,Gd5Ho(MoO6)2,"['O', 'Mo', 'Gd', 'Ho']",20,301.1546,7.3614,1,P1,1,triclinic,-226.3063,-3.5138,-0.1168,3D,0.0891,True,0.0,,-0.1168,-0.0888
142942,Lu1O24Tm5W4Y2,5f2451a03b,Y2Tm5Lu(WO6)4,"['O', 'Y', 'Tm', 'Lu', 'W']",36,450.3948,8.5417,1,P1,1,triclinic,-330.4933,-3.3355,-0.0056,3D,3.644,True,0.0,,-0.0056,-0.0054
142966,F36Ho1Th1,5f28aeb247,HoThF36,"['F', 'Ho', 'Th']",38,686.4707,2.6147,1,P1,1,triclinic,-129.6384,-1.285,-0.2229,0D,,True,0.0,,-0.2229,-0.2228
142995,Ho4Mo1O12Tb1V1,5f2dd8ba60,TbHo4VMoO12,"['O', 'V', 'Mo', 'Tb', 'Ho']",19,252.8952,7.6004,1,P1,1,triclinic,-168.2715,-3.4738,-0.0173,3D,1.6845,True,0.0,,-0.0173,-0.0134
143002,Bi2O16Sb3Ta3,5f2eb25e6e,Ta3Bi2Sb3O16,"['O', 'Sb', 'Ta', 'Bi']",24,337.5018,7.7839,2,P2,3,monoclinic,-194.739,-2.493,-0.0018,3D,2.484,True,0.0,,-0.0018,-0.0018
143057,F28La4Sb1V3,5f3838190d,La4V3SbF28,"['F', 'V', 'Sb', 'La']",36,588.2163,3.8454,1,P1,1,triclinic,-235.7697,-3.6423,-0.0231,3D,0.6853,True,0.0,,-0.0231,-0.0227
143137,F22Np2Sc1Zr3,5f499051dc,Zr3Np2ScF22,"['F', 'Sc', 'Zr', 'Np']",28,434.4139,4.6275,m,Cm,8,monoclinic,-212.043,-4.0043,-0.0165,3D,,True,0.0,,-0.0165,-0.0161
143143,Ce2F14Tb2,5f4a73fc9e,TbCeF7,"['F', 'Ce', 'Tb']",18,313.5464,4.5761,2,P2_1,4,monoclinic,-124.2862,-4.2439,-0.0026,3D,2.341,False,0.0,,-0.0026,-0.0026
143167,Br12Ir2Pr12Rh2,5f4daacef1,Pr6IrRhBr6,"['Br', 'Rh', 'Pr', 'Ir']",28,903.1454,5.9571,222,F222,22,orthorhombic,-154.9095,-1.6246,-0.0003,3D,0.0147,True,0.0,,-0.0003,-0.0
143188,Cl2Ho7In6Lu3,5f50fc679c,Ho7Lu3(In3Cl)2,"['Cl', 'In', 'Ho', 'Lu']",18,472.9601,8.564,32,P312,149,trigonal,-79.5172,-0.7595,-0.0426,3D,,True,-0.0,,-0.0426,-0.0271
143207,Ba3Lu1O9Pr1Tm2,5f546430e1,Ba3PrTm2LuO9,"['O', 'Ba', 'Pr', 'Tm', 'Lu']",16,278.0327,7.225,3,R3,146,trigonal,-125.808,-3.5791,-0.004,intercalated ion,3.2544,True,0.0,,-0.004,-0.0019
143225,Ba1Ir6La1O18,5f571ab26e,BaLa(IrO3)6,"['O', 'Ba', 'La', 'Ir']",26,346.8995,8.2214,mm2,Amm2,38,orthorhombic,-191.3253,-1.6299,-0.0539,intercalated ion,0.0032,False,0.0,,-0.0539,-0.0275
143249,La4O19Pd5Ru1,5f5ad88d2a,La4Pd5RuO19,"['O', 'Ru', 'Pd', 'La']",29,375.5947,6.5997,2,C2,5,monoclinic,-207.028,-2.0034,-0.0907,3D,0.088,True,0.0,,-0.0907,-0.0569
143251,Bi1Cl2In5Y10,5f5b18af3e,Y10In5BiCl2,"['Cl', 'Y', 'In', 'Bi']",18,483.0703,5.9916,mm2,Amm2,38,orthorhombic,-101.5286,-0.8621,-0.0483,3D,,True,0.0,,-0.0483,-0.0464
143257,Gd8O24Ta1Te3,5f5c00f7b3,Gd8Ta(TeO8)3,"['O', 'Te', 'Gd', 'Ta']",36,506.9657,7.2248,1,P1,1,triclinic,-366.2309,-3.1551,-0.0347,3D,0.0002,False,0.0,,-0.0347,-0.0297
143348,F22Hf3Np2Tm1,5f6d6576cc,TmHf3Np2F22,"['F', 'Tm', 'Hf', 'Np']",28,436.0152,6.0797,m,Cm,8,monoclinic,-217.6733,-4.1206,-0.0254,3D,,True,0.0,,-0.0254,-0.0247
143423,Br8O24Zn4,5f7a131190,Zn(BrO3)2,"['O', 'Zn', 'Br']",36,551.8785,3.866,2,P2_1,4,monoclinic,-159.8024,-0.6366,-0.1278,3D,3.8624,True,0.0,,-0.1278,-0.1246
143455,Nb3O6Os5Zr18,5f80d52392,Zr18Nb3Os5O6,"['O', 'Zr', 'Nb', 'Os']",32,555.6234,8.8699,mm2,Amm2,38,orthorhombic,-312.2282,-1.32,-0.0219,3D,0.0025,False,0.0,,-0.0219,-0.0168
143533,F28Lu2Pt4Tb1Y1,5f8be47769,TbYLu2Pt4F28,"['F', 'Y', 'Tb', 'Lu', 'Pt']",36,515.296,6.1551,1,P1,1,triclinic,-202.9236,-2.916,-0.0009,3D,,True,0.0,,-0.0009,-0.0009
143538,O18P6Pb1W1,5f8d6e609f,P6PbWO18,"['O', 'P', 'W', 'Pb']",26,448.6629,3.201,32,P312,149,trigonal,-203.2697,-2.5021,-0.0128,3D,3.2699,True,0.0,,-0.0128,-0.0108
143571,C14O4Ti20,5f919b91f3,Ti10C7O2,"['C', 'O', 'Ti']",38,405.9432,4.8657,1,P1,1,triclinic,-356.5344,-1.3068,-0.0757,3D,0.0012,True,0.0,,-0.0757,-0.0426
143600,As3Br18Cs6In1,5f97e11381,Cs6In(AsBr6)3,"['As', 'Br', 'In', 'Cs']",28,1078.5372,3.965,3m,P3m1,156,trigonal,-93.4666,-1.4964,-0.0682,intercalated ion,,True,0.0,,-0.0682,-0.0204
143762,Cl2H2Tb1Y1,5fb24710b9,TbY(HCl)2,"['H', 'Cl', 'Y', 'Tb']",6,119.5087,4.4568,3m,R3m,160,trigonal,-31.3781,-1.6325,-0.0046,2D,0.0314,True,0.0,,-0.0046,-0.0
143781,Br16Cs2Rb2,5fb53b6dac,CsRbBr8,"['Br', 'Rb', 'Cs']",20,828.1902,3.439,2,P2_1,4,monoclinic,-54.1506,-1.2104,-0.2511,intercalated ion,,True,0.0,,-0.2511,-0.0376