Unnamed: 0,Composition,MaterialId,Reduced Formula,Elements,NSites,Volume,Density,Point Group,Space Group,Space Group Number,Crystal System,Corrected Energy,Formation Energy Per Atom,Decomposition Energy Per Atom,Dimensionality Cheon,Bandgap,Is Train,Decomposition Energy Per Atom All,Decomposition Energy Per Atom Relative,Decomposition Energy Per Atom MP,Decomposition Energy Per Atom MP OQMD
129885,Cl24Li4Re4,5677ca6879,LiReCl6,"['Li', 'Cl', 'Re']",32,847.9891,3.1791,3,R3,146,trigonal,-145.132,-1.3548,-0.0126,intercalated ion,0.004,True,-0.0,,-0.0126,-0.006
130024,C8Cl12Lu14Y2,568e41c955,YLu7(C2Cl3)2,"['C', 'Cl', 'Y', 'Lu']",36,706.6205,7.3998,mm2,Pmc2_1,26,orthorhombic,-229.2732,-1.5847,-0.0138,3D,0.0257,False,-0.0,,-0.0138,-0.0041
130025,F12Ru1Tc1Tl1,568e47a647,TlTcRuF12,"['F', 'Tc', 'Ru', 'Tl']",15,269.9122,3.8847,1,P1,1,triclinic,-78.1722,-2.2159,-0.069,intercalated ion,,True,0.0,,-0.069,-0.0305
130070,Ce1Eu5O12W1,5697558bcb,CeEu5WO12,"['O', 'Ce', 'Eu', 'W']",19,282.8553,7.4896,1,P1,1,triclinic,-191.9061,-3.2726,-0.1314,3D,0.0007,False,0.0,,-0.1314,-0.035
130116,Br6O18Tm2,569edf2c11,Tm(BrO3)3,"['O', 'Br', 'Tm']",26,462.3413,3.9697,6,P6_3,173,hexagonal,-135.0743,-1.0476,-0.1454,3D,,True,0.0,,-0.1454,-0.1422
130135,F27O1V4Y4,56a0ea5b97,Y4V4OF27,"['O', 'F', 'V', 'Y']",36,516.2579,3.5007,1,P1,1,triclinic,-249.3463,-3.6274,-0.0293,3D,2.0044,True,0.0,,-0.0293,-0.0291
130138,Br5C2La1Pu3,56a1bdc6da,LaPu3C2Br5,"['C', 'Br', 'La', 'Pu']",11,300.1976,7.1602,m,Cm,8,monoclinic,-90.2564,-1.4435,-0.0601,3D,0.0025,True,0.0,,-0.0601,-0.0103
130201,Au4Ho2O12Y2,56adff4c87,YHo(AuO3)2,"['O', 'Y', 'Ho', 'Au']",20,277.7045,8.8947,mm2,Pma2,28,orthorhombic,-140.0242,-2.2728,-0.0421,3D,2.0346,False,0.0,,-0.0421,-0.005
130277,Np1O6Sr1Tm1,56b87878b8,SrTmNpO6,"['O', 'Sr', 'Tm', 'Np']",9,142.3456,6.8774,32,P312,149,trigonal,-79.9858,-3.465,-0.2512,intercalated ion,,False,0.0,,-0.2512,-0.0612
130284,F7H3S1,56b9f2c43e,H3SF7,"['H', 'F', 'S']",11,145.197,1.9222,1,P1,1,triclinic,-48.2101,-1.865,-0.0325,0D,4.8451,True,0.0,,-0.0325,-0.0195
130314,Eu1La1O8Pd4,56c03f131e,LaEu(PdO2)4,"['O', 'Pd', 'La', 'Eu']",14,187.9591,7.4612,-4,I-4,82,tetragonal,-101.5753,-1.8603,-0.0563,3D,0.0006,False,0.0,,-0.0563,-0.0298
130363,Au4Bi3Ho1O12,56c77f58d8,HoBi3(AuO3)4,"['O', 'Ho', 'Au', 'Bi']",20,298.496,9.8562,m,Pm,6,monoclinic,-116.7033,-1.399,-0.0181,3D,1.1774,True,0.0,,-0.0181,-0.0094
130436,F28Ir3Pt1Tm4,56d27bc550,Tm4Ir3PtF28,"['F', 'Tm', 'Ir', 'Pt']",36,511.5583,6.4253,1,P1,1,triclinic,-210.9972,-2.9718,-0.1909,3D,0.0005,True,0.0,,-0.1909,-0.0221
130444,As1B2Br12P1Pr12,56d3b42af4,Pr12B2AsPBr12,"['B', 'P', 'As', 'Br', 'Pr']",28,853.7652,5.4017,2,C2,5,monoclinic,-147.8682,-1.6937,-0.0146,3D,0.0022,True,0.0,,-0.0146,-0.0146
130459,Cl32Se2Te6,56d5c8d914,Te3SeCl16,"['Cl', 'Se', 'Te']",40,1377.9788,2.48,mm2,Cmc2_1,36,orthorhombic,-126.8249,-1.0455,-0.0118,intercalated ion,,True,0.0,,-0.0118,-0.0117
130520,Br12Ga2Pr3Tb5,56df6ddf45,Tb5Pr3(GaBr6)2,"['Ga', 'Br', 'Pr', 'Tb']",22,816.7078,4.7082,m,Pm,6,monoclinic,-103.7214,-1.8412,-0.0404,3D,0.0076,True,-0.0,,-0.0404,-0.0185
130569,Ag2Au3Cu1O8,56e9ae0d63,CuAg2Au3O8,"['O', 'Cu', 'Ag', 'Au']",14,197.0502,8.4116,1,P1,1,triclinic,-66.6968,-0.5377,-0.0133,3D,0.0018,True,-0.0,,-0.0133,-0.0121
130584,O18Os3Pb6,56ecc8a270,Os(PbO3)2,"['O', 'Os', 'Pb']",27,423.761,8.2364,32,P321,150,trigonal,-186.181,-1.5244,-0.0217,3D,0.3223,True,-0.0,,-0.0217,-0.0211
130595,Ba4Ga2In1Lu1O10,56ee7e7874,Ba4LuIn(GaO5)2,"['O', 'Ga', 'In', 'Ba', 'Lu']",18,298.0135,6.3439,2,C2,5,monoclinic,-122.2519,-2.876,-0.019,intercalated ion,2.7371,False,0.0,,-0.019,-0.005
130669,Ac1K1O8Se2,56fc9a95f4,KAc(SeO4)2,"['O', 'K', 'Se', 'Ac']",12,217.0297,4.2236,2,C2,5,monoclinic,-76.2159,-2.0341,-0.2441,intercalated ion,3.5885,True,0.0,,-0.2441,-0.2435
130730,Al1F36Tb1,5709ce1744,TbAlF36,"['F', 'Al', 'Tb']",38,685.9873,2.1056,1,P1,1,triclinic,-119.7088,-1.1188,-0.2411,0D,,True,0.0,,-0.2411,-0.2408
130787,Br2Lu1N2Pa1,5711035c09,LuPa(BrN)2,"['N', 'Br', 'Lu', 'Pa']",6,137.3092,7.1814,3m,R3m,160,trigonal,-46.6273,-2.1075,-0.2914,2D,1.9108,True,0.0,,-0.2914,-0.1565
130829,Cl1Pr5S11Tb3,571934e494,Tb3Pr5S11Cl,"['S', 'Cl', 'Pr', 'Tb']",20,469.5428,5.5505,m,Pm,6,monoclinic,-133.1853,-2.4014,-0.0187,3D,0.0059,True,0.0,,-0.0187,-0.0165
130878,Ac1Cd1O10Pa3,5722acb660,AcPa3CdO10,"['O', 'Cd', 'Ac', 'Pa']",15,200.4305,9.8798,m,Cm,8,monoclinic,-138.7694,-3.7135,-0.4628,3D,,False,0.0,,-0.4628,-0.4628
130892,In1O13Os3Pb2Tl2,5725098096,Tl2InOs3Pb2O13,"['O', 'In', 'Os', 'Tl', 'Pb']",21,298.2777,9.5568,m,Cm,8,monoclinic,-144.6309,-1.5107,-0.0325,3D,0.0021,False,0.0,,-0.0325,-0.0136
130944,Br6Np1V1,572b813e72,NpVBr6,"['V', 'Br', 'Np']",8,291.5735,4.3702,32,P312,149,trigonal,-44.5822,-1.5911,-0.0978,2D,,True,0.0,,-0.0978,-0.0248
131026,F28Ho3Pt4Tb1,573997ee8a,TbHo3Pt4F28,"['F', 'Tb', 'Ho', 'Pt']",36,522.5027,6.2481,1,P1,1,triclinic,-201.3752,-2.9219,-0.0002,3D,2.3058,True,0.0,,-0.0002,-0.0002
131037,Hf11Ir8O4Zr5,573a983e49,Hf11Zr5(Ir2O)4,"['O', 'Zr', 'Hf', 'Ir']",28,478.8199,13.9456,mm2,Imm2,44,orthorhombic,-284.4323,-1.4881,-0.0169,3D,0.009,False,0.0,,-0.0169,-0.0086
131085,Cl18Ho1Nb6Rb1,57449b1b77,RbHo(NbCl3)6,"['Cl', 'Rb', 'Nb', 'Ho']",26,673.5803,3.5647,3,R3,146,trigonal,-149.1734,-1.9127,-0.0107,intercalated ion,1.0657,False,0.0,,-0.0107,-0.0075
131126,F12K5O16S4Sb4Tl3,5749f8cfd3,K5Tl3Sb4S4(O4F3)4,"['O', 'F', 'S', 'K', 'Sb', 'Tl']",44,764.1365,4.1461,1,P1,1,triclinic,-249.3623,-2.3081,-0.0004,intercalated ion,,True,0.0,,-0.0004,-0.0001
131151,Bi6Cu4O16Pb2,574da8d6be,Cu2Bi3PbO8,"['O', 'Cu', 'Pb', 'Bi']",28,433.1638,8.3511,2,P2_1,4,monoclinic,-165.9108,-1.4136,-0.0042,3D,0.002,True,-0.0,,-0.0042,-0.0042
131185,Cu2O2P2Pr1U1,5753633418,PrUCu2(PO)2,"['O', 'P', 'Cu', 'Pr', 'U']",8,121.5743,8.1948,4mm,P4mm,99,tetragonal,-59.9754,-1.8728,-0.0417,3D,0.0053,True,0.0,,-0.0417,-0.0316
131196,Au1Lu1Na4O6,5755b31d08,Na4LuAuO6,"['O', 'Na', 'Lu', 'Au']",12,153.0833,6.0733,2,C2,5,monoclinic,-66.1057,-1.9444,-0.0525,intercalated ion,1.624,True,0.0,,-0.0525,-0.0521
131214,Br20In8La1Sm3,5757953a0f,LaSm3(In2Br5)4,"['Br', 'In', 'La', 'Sm']",32,1077.2413,4.7888,m,Pm,6,monoclinic,-126.454,-1.6441,-0.0104,intercalated ion,,True,0.0,,-0.0104,-0.0104
131218,Ca1F8Li2Np1,5757e81021,Li2CaNpF8,"['Li', 'F', 'Ca', 'Np']",12,153.9219,4.7786,-4,I-4,82,tetragonal,-78.8744,-3.7343,-0.02,intercalated ion,0.1634,True,0.0,,-0.02,-0.0093
131278,F1O23Ta8Tl8,5760d4b61e,Ta8Tl8O23F,"['O', 'F', 'Ta', 'Tl']",40,622.5461,9.2547,1,P1,1,triclinic,-337.8968,-2.7107,-0.0126,intercalated ion,,True,0.0,,-0.0126,-0.01
131285,Au4Eu2Ho2O12,5761570b56,EuHo(AuO3)2,"['O', 'Eu', 'Ho', 'Au']",20,277.7045,9.6488,mm2,Pma2,28,orthorhombic,-144.4403,-2.111,-0.0648,3D,,True,0.0,,-0.0648,-0.0195
131293,Np1O12Ta1Tm5,576257d1e4,Tm5NpTaO12,"['O', 'Tm', 'Ta', 'Np']",19,254.3926,9.4949,1,P1,1,triclinic,-180.866,-3.9108,-0.0029,3D,0.0969,True,0.0,,-0.0029,-0.0029
131297,Gd1O24Tb1W4Y6,5762b61426,TbGdY6(WO6)4,"['O', 'Y', 'Gd', 'Tb', 'W']",36,468.1447,6.984,2,P2,3,monoclinic,-346.4928,-3.2889,-0.0022,3D,3.422,True,0.0,,-0.0022,-0.0014
131347,Li4O8Tb1Tm3,576ac22aec,Li4TbTm3O8,"['Li', 'O', 'Tb', 'Tm']",16,196.56,6.9399,m,Pm,6,monoclinic,-118.75,-3.3418,-0.0103,intercalated ion,4.6602,True,0.0,,-0.0103,-0.0021
131364,Eu10F1Sb1Si5,576c590f64,Eu10Si5SbF,"['F', 'Si', 'Sb', 'Eu']",17,473.6818,6.313,222,I222,23,orthorhombic,-151.9204,-0.9313,-0.0451,3D,inf,True,0.0,,-0.0451,-0.0124
131397,F28Lu4Pt1Zr3,57709b0c26,Lu4Zr3PtF28,"['F', 'Zr', 'Lu', 'Pt']",36,531.8145,5.3099,1,P1,1,triclinic,-244.034,-3.9087,-0.004,3D,2.5775,True,0.0,,-0.004,-0.002
131482,Br18Ir1Rb6Sc3,577d03b212,Rb6Sc3IrBr18,"['Sc', 'Br', 'Rb', 'Ir']",28,989.6952,3.8224,3m,P3m1,156,trigonal,-116.9567,-1.9205,-0.0042,intercalated ion,1.9098,True,0.0,,-0.0042,-0.0042
131491,Ce6F30Th1Tm1,577e288676,Ce6TmThF30,"['F', 'Ce', 'Tm', 'Th']",38,627.3214,4.7954,2,C2,5,monoclinic,-265.4382,-4.2265,-0.0757,3D,,False,0.0,,-0.0757,-0.0331
131501,Cl2Mo2O10P2Rb1Tl1,577fde6893,RbTlMo2P2(ClO5)2,"['O', 'P', 'Cl', 'Rb', 'Mo', 'Tl']",18,330.0605,3.8969,-42m,P-4m2,115,tetragonal,-129.4661,-2.2461,-0.0033,intercalated ion,,True,0.0,,-0.0033,-0.0033
131502,Be4Gd1Ge2O14Sm3,578005a211,Sm3GdBe4(GeO7)2,"['Be', 'O', 'Ge', 'Sm', 'Gd']",24,278.7291,6.0389,m,Cm,8,monoclinic,-199.4896,-3.2409,-0.0217,intercalated ion,3.4747,True,0.0,,-0.0217,-0.0001
131508,C3F2Sc5,5780bda24f,Sc5C3F2,"['C', 'F', 'Sc']",10,131.4265,3.7754,2,C2,5,monoclinic,-78.9096,-1.5744,-0.0814,3D,0.0176,False,0.0,,-0.0814,-0.0262
131553,Hg2Nb7O25Pb4Ta1,578774a320,TaNb7Hg2Pb4O25,"['O', 'Nb', 'Ta', 'Hg', 'Pb']",39,617.8845,6.6145,1,P1,1,triclinic,-323.3841,-2.6067,-0.0096,3D,2.6188,True,0.0,,-0.0096,-0.0059
131607,Cl30Os5Tc1,578fe60cbc,Tc(OsCl6)5,"['Cl', 'Tc', 'Os']",36,1100.9348,3.1866,1,P1,1,triclinic,-155.3876,-0.9287,-0.1591,0D,,True,0.0,,-0.1591,-0.1574
131643,Bi4F28Pt3Tm1,57953f97df,TmBi4Pt3F28,"['F', 'Tm', 'Pt', 'Bi']",36,580.9828,6.0652,1,P1,1,triclinic,-180.68,-2.4697,-0.0895,3D,0.0024,True,0.0,,-0.0895,-0.0476
131661,F28La2Ru4Sm2,57994f014d,LaSmRu2F14,"['F', 'Ru', 'La', 'Sm']",36,577.5939,4.3548,2,P2_1,4,monoclinic,-222.4323,-3.1251,-0.0364,3D,0.0022,True,0.0,,-0.0364,-0.0322
131721,Br12Ge2Pr1Sm7,57a3ba2948,PrSm7(GeBr6)2,"['Ge', 'Br', 'Pr', 'Sm']",22,823.5414,4.6327,m,Pm,6,monoclinic,-108.6439,-1.9065,-0.05,3D,0.0085,True,0.0,,-0.05,-0.0444
131759,Cs1O12Sb4Tl3,57aa625208,CsTl3(SbO3)4,"['O', 'Sb', 'Cs', 'Tl']",20,381.8386,6.1974,3,P3,143,trigonal,-119.5373,-1.7833,-0.0115,intercalated ion,,True,0.0,,-0.0115,-0.0001
131774,F12Pt1Rh1Sr2,57adc0a4f0,Sr2PtRhF12,"['F', 'Sr', 'Rh', 'Pt']",16,271.8064,4.2839,1,P1,1,triclinic,-83.3736,-2.7264,-0.0685,intercalated ion,0.005,True,0.0,,-0.0685,-0.0003
131783,Ba1Cl12Ir2Sr1,57af417eaf,BaSr(IrCl6)2,"['Cl', 'Sr', 'Ba', 'Ir']",16,445.0602,3.8609,2,C2,5,monoclinic,-70.1535,-1.6679,-0.0891,intercalated ion,0.0073,True,-0.0,,-0.0891,-0.0154
131868,F1Ir2O18Rh4Sr4,57be62312b,Sr4Ir2Rh4O18F,"['O', 'F', 'Sr', 'Rh', 'Ir']",29,400.4347,6.0275,1,P1,1,triclinic,-199.8686,-1.8966,-0.1189,intercalated ion,0.0018,True,0.0,,-0.1189,-0.0917
131874,Gd4O14Tb2W2,57bf991e18,TbGd2WO7,"['O', 'Gd', 'Tb', 'W']",22,305.7637,8.3554,2,C2,5,monoclinic,-236.6597,-3.4499,-0.0142,3D,2.3483,True,0.0,,-0.0142,-0.0087
131888,Ca2La1O12Pt1Rh1Sr3,57c1c2cfe5,Sr3Ca2LaPtRhO12,"['O', 'Ca', 'Sr', 'Rh', 'La', 'Pt']",20,282.6812,5.7092,1,P1,1,triclinic,-137.7199,-2.5447,-0.0593,intercalated ion,,True,0.0,,-0.0593,-0.0486
131938,Hf1O2Sn6Y6Zr3,57cadbf10a,Y6HfZr3(Sn3O)2,"['O', 'Y', 'Zr', 'Sn', 'Hf']",18,402.5993,7.1349,32,P312,149,trigonal,-131.8669,-1.3064,-0.029,3D,0.0044,True,0.0,,-0.029,-0.0289
131992,C2Cl7Tb4Y2,57d6135a21,Tb4Y2C2Cl7,"['C', 'Cl', 'Y', 'Tb']",15,359.7564,5.0113,m,Cm,8,monoclinic,-92.0982,-1.949,-0.1425,3D,0.0032,True,0.0,,-0.1425,-0.0159
132008,Ba1Cl3S24,57d8e211a2,Ba(S8Cl)3,"['S', 'Cl', 'Ba']",28,902.5484,1.8642,m,Cm,8,monoclinic,-127.0192,-0.7243,-0.3724,intercalated ion,,True,0.0,,-0.3724,-0.3674
132009,Eu1O6Pt1Sb1,57d9001935,EuSbPtO6,"['O', 'Sb', 'Eu', 'Pt']",9,124.9223,7.5077,32,P312,149,trigonal,-68.6544,-2.0527,-0.0768,3D,0.0032,True,0.0,,-0.0768,-0.0495
132072,Ho2Lu5O24Tm1W4,57e4a5b993,Ho2TmLu5(WO6)4,"['O', 'Ho', 'Tm', 'Lu', 'W']",36,444.9166,9.3044,2,P2,3,monoclinic,-327.2911,-3.3462,-0.0054,3D,3.626,True,0.0,,-0.0054,-0.0053
132078,Ba3Cd1Nb1O9Sb1,57e57ff2b9,Ba3NbCdSbO9,"['O', 'Nb', 'Cd', 'Sb', 'Ba']",15,227.8828,6.4346,3m,P3m1,156,trigonal,-106.6228,-2.7454,-0.0221,intercalated ion,2.6809,True,0.0,,-0.0221,-0.0199
132084,Br12Ta1V3,57e69402a7,Ta(VBr4)3,"['V', 'Br', 'Ta']",16,554.8558,3.8685,m,Pm,6,monoclinic,-79.9082,-1.3222,-0.0527,1D,0.0019,True,-0.0,,-0.0527,-0.0024
132102,F20N2Pu1V1,57ea183526,PuV(NF10)2,"['N', 'F', 'V', 'Pu']",24,358.4186,3.2566,1,P1,1,triclinic,-125.3931,-1.9641,-0.387,0D,,True,-0.0,,-0.387,-0.2041
132104,Nb2O14Rb2Se4,57ea5c690a,RbNbSe2O7,"['O', 'Se', 'Rb', 'Nb']",22,387.8453,3.8387,mm2,Cmc2_1,36,orthorhombic,-149.2504,-1.9923,-0.0455,intercalated ion,3.0922,True,-0.0,,-0.0455,-0.0438
132115,La8Np1O24W3,57eb85e8ab,La8Np(WO8)3,"['O', 'La', 'W', 'Np']",36,552.2681,6.8667,1,P1,1,triclinic,-332.9049,-3.4123,-0.0559,3D,,True,0.0,,-0.0559,-0.0506
132169,Bi1O26Sb9Tb2,57f5db0eb6,Tb2BiSb9O26,"['O', 'Sb', 'Tb', 'Bi']",38,565.6302,5.9849,m,Pm,6,monoclinic,-260.8077,-2.1537,-0.0242,3D,1.5806,True,0.0,,-0.0242,-0.0242
132193,Cl12Gd5Ru2Tb3,57f99b482b,Tb3Gd5(RuCl6)2,"['Cl', 'Ru', 'Gd', 'Tb']",22,727.5015,4.3153,m,Pm,6,monoclinic,-171.3833,-2.103,-0.0566,3D,,True,0.0,,-0.0566,-0.0268
132210,B18Eu2Li2O30,57fbbfec1e,LiEu(B3O5)3,"['Li', 'B', 'O', 'Eu']",52,600.9853,2.742,3m,R3c,161,trigonal,-444.5375,-2.9127,-0.0193,intercalated ion,,True,0.0,,-0.0193,-0.019
132226,Np4O24Pr7Tb1,57fe8c8cb9,TbPr7Np4O24,"['O', 'Pr', 'Tb', 'Np']",36,545.2769,7.544,1,P1,1,triclinic,-340.8542,-3.6725,-0.2385,3D,,True,-0.0,,-0.2385,-0.1723
132234,Eu3O24W4Y5,57ffa3bff1,Eu3Y5(WO6)4,"['O', 'Y', 'Eu', 'W']",36,477.5938,7.0225,2,P2,3,monoclinic,-346.6009,-3.1336,-0.0216,3D,0.0003,True,0.0,,-0.0216,-0.0024
132250,Br2N2Np1Pa1,58043b0769,NpPa(BrN)2,"['N', 'Br', 'Pa', 'Np']",6,136.4816,7.9797,4mm,P4mm,99,tetragonal,-53.6444,-1.8725,-0.1965,intercalated ion,0.0023,True,0.0,,-0.1965,-0.0506
132293,Br8Ho7Lu1Re2,580a5e7765,Ho7Lu(ReBr4)2,"['Br', 'Ho', 'Lu', 'Re']",18,519.7447,7.4797,1,P1,1,triclinic,-100.5322,-1.4417,-0.0599,3D,,False,0.0,,-0.0599,-0.017
132322,Br1Si15Sm8Tm12,581023a57b,Sm8Tm12Si15Br,"['Si', 'Br', 'Sm', 'Tm']",36,834.6782,7.4231,1,P1,1,triclinic,-202.6176,-0.7817,-0.0091,3D,,True,0.0,,-0.0091,-0.007
132337,F16O4Rb8Ti4,5812dfe1df,Rb2TiOF4,"['O', 'F', 'Ti', 'Rb']",32,578.4343,3.5689,222,P2_12_12_1,19,orthorhombic,-198.3339,-3.3916,-0.0212,intercalated ion,4.3497,True,0.0,,-0.0212,-0.0155
132357,Bi5Lu3O14,5815563f1e,Lu3Bi5O14,"['O', 'Lu', 'Bi']",22,320.0237,9.3076,1,P1,1,triclinic,-155.6303,-2.4248,-0.0288,3D,1.4098,False,0.0,,-0.0288,-0.0229
132388,Br18In4Nb2Ta4,581ad5cdf8,Ta2NbIn2Br9,"['Br', 'Nb', 'In', 'Ta']",28,891.9872,5.2258,2,C2,5,monoclinic,-141.356,-1.1875,-0.013,1D,,True,0.0,,-0.013,-0.013
132408,Br6Na1Sn1Tb1,581e1c2674,NaTbSnBr6,"['Na', 'Br', 'Sn', 'Tb']",9,326.3696,3.9688,3,R3,146,trigonal,-36.2562,-1.8298,-0.0356,intercalated ion,3.4986,True,0.0,,-0.0356,-0.009
132440,Lu1O24Tb4Tm3W4,5825fe19e9,Tb4Tm3Lu(WO6)4,"['O', 'Tb', 'Tm', 'Lu', 'W']",36,456.3157,8.8676,1,P1,1,triclinic,-326.9897,-3.3311,-0.0059,3D,,True,0.0,,-0.0059,-0.0058
132445,Br10Pr1Pt1Y5,5826ee6417,PrY5PtBr10,"['Br', 'Y', 'Pr', 'Pt']",17,582.3976,4.5037,1,P1,1,triclinic,-93.4895,-1.9962,-0.0093,3D,0.665,True,-0.0,,-0.0093,-0.0092
132533,Al8Eu5O18Sr1,5836686606,SrEu5Al8O18,"['O', 'Al', 'Sr', 'Eu']",32,467.9894,4.7947,1,P1,1,triclinic,-281.1193,-3.4044,-0.0175,intercalated ion,0.024,True,0.0,,-0.0175,-0.0119
132545,Gd1Ho1O24Tm6W4,58379c5f9d,GdHoTm6(WO6)4,"['O', 'Gd', 'Ho', 'Tm', 'W']",36,452.1508,9.0166,2,P2,3,monoclinic,-336.1755,-3.3355,-0.0055,3D,3.4963,True,0.0,,-0.0055,-0.0045
132647,As1O12Pr5Rh1,5848c50b9f,Pr5AsRhO12,"['O', 'As', 'Rh', 'Pr']",19,284.3616,6.2738,2,C2,5,monoclinic,-153.4401,-3.0598,-0.0193,3D,,True,0.0,,-0.0193,-0.0193
132692,Ca3La1O12Ta1V3,5850eacee4,Ca3LaTaV3O12,"['O', 'Ca', 'V', 'La', 'Ta']",20,241.5439,5.396,1,P1,1,triclinic,-173.2546,-3.1908,-0.0083,intercalated ion,1.1637,True,0.0,,-0.0083,-0.0037
132731,Au1Hf1O12Tm5,5856d36449,Tm5HfAuO12,"['O', 'Tm', 'Hf', 'Au']",19,246.3678,9.5178,1,P1,1,triclinic,-160.1477,-3.4296,-0.0415,3D,1.5209,False,0.0,,-0.0415,-0.0347
132823,Br2Ho4In4La6Tl2,586419dd27,La3Ho2TlIn2Br,"['Br', 'In', 'La', 'Ho', 'Tl']",18,546.2372,7.6637,mm2,Ama2,40,orthorhombic,-79.8292,-0.7155,-0.0209,3D,0.0006,True,0.0,,-0.0209,-0.02
132825,Cl5I7Ti4,586444983d,Ti4I7Cl5,"['Cl', 'Ti', 'I']",16,616.2559,3.3872,m,Pm,6,monoclinic,-75.5222,-1.5018,-0.0035,1D,0.1092,True,0.0,,-0.0035,-0.0028
132840,Bi1Na4O6Rh1,586778aa53,Na4BiRhO6,"['O', 'Na', 'Rh', 'Bi']",12,150.9344,5.4991,2,C2,5,monoclinic,-66.4221,-1.681,-0.0425,intercalated ion,,True,0.0,,-0.0425,-0.0352
132846,Gd2Ho4O12Ta1,586821a23b,Gd2Ho4TaO12,"['O', 'Gd', 'Ho', 'Ta']",19,262.4717,8.5229,1,P1,1,triclinic,-190.3572,-3.8233,-0.0112,3D,0.0019,False,0.0,,-0.0112,-0.0107
132866,Gd1La1O18Ta5W1,586b8e58eb,LaGdTa5WO18,"['O', 'La', 'Gd', 'Ta', 'W']",26,343.9425,8.0758,1,P1,1,triclinic,-267.7054,-3.3609,-0.0075,3D,1.9975,False,-0.0,,-0.0075,-0.0043
132904,C1Cl31,58713e88ea,CCl31,"['C', 'Cl']",32,1087.527,1.6965,m,Pm,6,monoclinic,-81.6848,-0.4735,-0.3731,intercalated ion,,True,0.0,,-0.3731,-0.3728
132908,Al6Ba8Ga2O30Pr4Sr4,5871f48c92,Ba4Sr2Pr2Al3GaO15,"['O', 'Al', 'Ga', 'Sr', 'Ba', 'Pr']",54,819.2581,5.6632,m,Cc,9,monoclinic,-395.1269,-3.2764,-0.0154,intercalated ion,,True,0.0,,-0.0154,-0.0131
132915,Br18Cs3Rb3Ti2V2,587446be74,Cs3Rb3Ti2(VBr9)2,"['Ti', 'V', 'Br', 'Rb', 'Cs']",28,1013.4473,3.7538,3m,P3m1,156,trigonal,-118.5472,-1.7677,-0.0271,intercalated ion,0.0003,True,0.0,,-0.0271,-0.0087
132990,Br12Mo2Zr1,587eb56044,Zr(MoBr6)2,"['Br', 'Zr', 'Mo']",15,593.0798,3.4773,m,Cm,8,monoclinic,-68.6208,-1.2492,-0.1296,0D,,False,-0.0,,-0.1296,-0.0051
133001,Al3F18Li3V3,58804a40ee,LiAlVF6,"['Li', 'F', 'Al', 'V']",27,298.8128,3.3152,32,P321,150,trigonal,-171.6559,-3.4457,-0.0091,intercalated ion,3.5199,True,0.0,,-0.0091,-0.0044
133002,Cl3S24Zn1,5880722f1e,Zn(S8Cl)3,"['S', 'Cl', 'Zn']",28,941.3045,1.6606,3m,R3m,160,trigonal,-122.2988,-0.5792,-0.3786,0D,0.0009,True,0.0,,-0.3786,-0.3122
133038,Cl18Nb4Ta2Zr1,588699925b,ZrTa2(Nb2Cl9)2,"['Cl', 'Zr', 'Nb', 'Ta']",25,660.1302,3.6799,1,P1,1,triclinic,-151.2893,-1.8139,-0.015,3D,,True,0.0,,-0.015,-0.0138
133043,Cl16Os4Se4Te4,5887d1d4af,TeOsSeCl4,"['Cl', 'Se', 'Te', 'Os']",28,928.7368,3.852,1,P1,1,triclinic,-126.7858,-0.9194,-0.0282,0D,0.8001,False,0.0,,-0.0282,-0.0281
133057,Br18C1Cs3Hf6Rb1,588ab8d26c,Cs3RbHf6CBr18,"['C', 'Br', 'Rb', 'Cs', 'Hf']",29,1050.6305,4.7501,1,P1,1,triclinic,-155.9892,-1.8582,-0.0489,0D,1.2191,False,0.0,,-0.0489,-0.019
133075,Ca1Cs2O24Sn11,588eb21f29,Cs2CaSn11O24,"['O', 'Ca', 'Sn', 'Cs']",38,570.2939,5.8109,1,P1,1,triclinic,-249.3737,-2.1769,-0.0248,intercalated ion,,True,0.0,,-0.0248,-0.0248
133129,Cl16Ga4Sb4Te4,589937488b,GaSbTeCl4,"['Cl', 'Ga', 'Sb', 'Te']",28,921.0127,3.3239,-4,I-4,82,tetragonal,-105.8596,-1.2529,-0.0084,0D,1.9029,True,0.0,,-0.0084,-0.008
133131,Ce9Cl2Pb6Th1,58998859b4,Ce9Th(Pb3Cl)2,"['Cl', 'Ce', 'Pb', 'Th']",18,528.5943,8.8186,mm2,Amm2,38,orthorhombic,-100.353,-0.7538,-0.0672,3D,,True,-0.0,,-0.0672,-0.0462
133144,Cl2Rb12Se8Tl2,589b1de107,Rb6TlSe4Cl,"['Cl', 'Se', 'Rb', 'Tl']",24,879.1409,4.0363,6mm,P6_3mc,186,hexagonal,-80.3282,-1.3406,-0.066,intercalated ion,,True,0.0,,-0.066,-0.0507
133146,Al12O48Tb11V8Y1,589c5ab3b8,Tb11YAl12V8O48,"['O', 'Al', 'V', 'Y', 'Tb']",80,933.7072,5.9335,222,F222,22,orthorhombic,-690.1252,-3.4695,-0.014,inf,,True,0.0,,-0.014,-0.0136
133162,F28Ho4Ru1Zr3,589fe24048,Ho4Zr3RuF28,"['F', 'Zr', 'Ru', 'Ho']",36,553.8509,4.6964,1,P1,1,triclinic,-249.3107,-3.9595,-0.0128,3D,0.1364,False,0.0,,-0.0128,-0.0099
133351,Ca1Na2Nb12O24,58c37d9ca5,Na2CaNb12O24,"['O', 'Na', 'Ca', 'Nb']",39,500.0793,5.2628,m,Cm,8,monoclinic,-356.5677,-2.8703,-0.0128,intercalated ion,,True,0.0,,-0.0128,-0.0128
133362,K2O12Ta1W3,58c4cd750e,K2Ta(WO4)3,"['O', 'K', 'Ta', 'W']",18,288.9959,5.7612,2,C2,5,monoclinic,-157.2289,-2.4945,-0.0128,intercalated ion,2.1725,False,0.0,,-0.0128,-0.0048
133365,Br16Cs1Rb3,58c58fbb57,CsRb3Br16,"['Br', 'Rb', 'Cs']",20,794.2719,3.4867,1,P1,1,triclinic,-54.0666,-1.2019,-0.3161,intercalated ion,,True,0.0,,-0.3161,-0.0394
133427,In6La4O18Pr2,58ce5d696b,La2PrIn3O9,"['O', 'In', 'La', 'Pr']",30,478.2611,6.2994,6mm,P6_3cm,185,hexagonal,-222.6981,-2.9273,-0.0143,3D,2.153,True,0.0,,-0.0143,-0.0069
133439,Br8Ca3Cd1O24,58d09777bf,Ca3Cd(BrO3)8,"['O', 'Ca', 'Br', 'Cd']",36,662.1921,3.1493,1,P1,1,triclinic,-174.7132,-0.998,-0.2569,intercalated ion,4.0596,False,0.0,,-0.2569,-0.232
133480,Ba3Ca1Nb1O9Sb1,58d9d315f5,Ba3CaNbSbO9,"['O', 'Ca', 'Nb', 'Sb', 'Ba']",15,228.7095,5.8862,3m,P3m1,156,trigonal,-112.0813,-3.0371,-0.0038,intercalated ion,2.9865,True,0.0,,-0.0038,-0.0038
133482,Br2I4Li1U1,58da03bf8a,LiU(I2Br)2,"['Li', 'Br', 'I', 'U']",8,379.281,3.9946,2,C2,5,monoclinic,-33.5182,-1.3685,-0.0164,intercalated ion,0.6246,True,0.0,,-0.0164,-0.0114