Unnamed: 0,Composition,MaterialId,Reduced Formula,Elements,NSites,Volume,Density,Point Group,Space Group,Space Group Number,Crystal System,Corrected Energy,Formation Energy Per Atom,Decomposition Energy Per Atom,Dimensionality Cheon,Bandgap,Is Train,Decomposition Energy Per Atom All,Decomposition Energy Per Atom Relative,Decomposition Energy Per Atom MP,Decomposition Energy Per Atom MP OQMD
49043,Au2Br5I1Rb2,20acdc522c,Rb2Au2IBr5,"['Br', 'Rb', 'I', 'Au']",10,382.6914,4.7352,1,P1,1,triclinic,-29.6301,-1.1413,-0.0014,intercalated ion,0.6723,True,-0.0,,-0.0014,-0.0008
49046,Au1Bi3Br1Pb3Pr10,20ad35f34c,Pr10Bi3Pb3AuBr,"['Br', 'Pr', 'Au', 'Pb', 'Bi']",18,556.6229,8.7543,1,P1,1,triclinic,-90.9736,-0.8581,-0.0158,3D,0.0014,False,0.0,,-0.0158,-0.0148
49055,F28Pd1Pt3Y4,20af52fe84,Y4PdPt3F28,"['F', 'Y', 'Pd', 'Pt']",36,527.4016,4.9723,1,P1,1,triclinic,-206.8493,-2.8908,-0.0126,3D,1.2864,True,0.0,,-0.0126,-0.0126
49134,Gd2O12Ru1Tm4,20bc43fd73,Gd2Tm4RuO12,"['O', 'Ru', 'Gd', 'Tm']",19,256.3279,8.3134,1,P1,1,triclinic,-180.689,-3.4728,-0.0062,3D,0.0007,True,0.0,,-0.0062,-0.002
49199,Ho1Lu2O12Re1Ru1Tm2,20c45a9597,HoTm2Lu2ReRuO12,"['O', 'Ru', 'Ho', 'Tm', 'Lu', 'Re']",19,243.2985,9.0911,1,P1,1,triclinic,-167.1024,-3.3385,-0.0203,3D,,True,0.0,,-0.0203,-0.0201
49207,C2Cl2Pr1Tb3,20c50417c6,Tb3Pr(CCl)2,"['C', 'Cl', 'Pr', 'Tb']",8,165.3882,7.1548,3m,P3m1,156,trigonal,-50.681,-1.2308,-0.1144,3D,0.0062,True,0.0,,-0.1144,-0.0031
49235,F6O2Rb2Se2,20cc41cb71,RbSeOF3,"['O', 'F', 'Se', 'Rb']",12,260.989,3.0212,2,P2_1,4,monoclinic,-57.2835,-2.2472,-0.106,intercalated ion,,False,0.0,,-0.106,-0.0345
49237,Br6In1Na1U1,20cc559075,NaUInBr6,"['Na', 'Br', 'In', 'U']",9,341.2767,4.1614,3,R3,146,trigonal,-39.7306,-1.6154,-0.0159,intercalated ion,,True,0.0,,-0.0159,-0.0144
49254,La5Mg1O12Os1,20d03e63f8,La5MgOsO12,"['O', 'Mg', 'La', 'Os']",19,287.718,6.3546,2,C2,5,monoclinic,-158.9709,-3.2729,-0.0224,3D,,True,0.0,,-0.0224,-0.0223
49270,Br24Tc5V3W4,20d2be8b07,V3Tc5(WBr6)4,"['V', 'Br', 'Tc', 'W']",36,1168.8636,4.6823,m,Cm,8,monoclinic,-204.3435,-0.9492,-0.0679,2D,inf,True,0.0,,-0.0679,-0.0214
49364,Ba3In1Lu1O9U1,20e278eb06,Ba3LuUInO9,"['O', 'In', 'Ba', 'Lu', 'U']",15,242.4484,7.4229,3m,P3m1,156,trigonal,-118.8357,-3.3322,-0.0687,intercalated ion,1.669,True,0.0,,-0.0687,-0.0222
49404,Ca3O24Ta12,20e88ea34f,CaTa4O8,"['O', 'Ca', 'Ta']",39,488.1289,9.102,m,Cm,8,monoclinic,-389.5722,-3.1413,-0.006,intercalated ion,0.0063,True,0.0,,-0.006,-0.006
49424,Gd1Hg2O8Tb3,20eafe27b6,Tb3Gd(HgO4)2,"['O', 'Gd', 'Tb', 'Hg']",14,218.0678,8.8575,m,Cm,8,monoclinic,-110.5588,-3.0278,-0.0105,3D,2.0591,False,0.0,,-0.0105,-0.0087
49438,C4Cl1La4Se1,20ecad43b6,La4C4SeCl,"['C', 'Cl', 'Se', 'La']",10,215.8693,5.5237,2,C2,5,monoclinic,-72.522,-1.0526,-0.0258,3D,0.0079,False,0.0,,-0.0258,-0.0255
49450,F9Hf2O3V1Zr1,20ee9c5237,Hf2ZrV(OF3)3,"['O', 'F', 'V', 'Zr', 'Hf']",16,268.345,4.4438,1,P1,1,triclinic,-131.0103,-3.8386,-0.0064,3D,1.8712,True,0.0,,-0.0064,-0.0052
49455,Ca2O26Si6Sm2Y6,20ef62368d,CaSmY3Si3O13,"['O', 'Si', 'Ca', 'Y', 'Sm']",42,534.1948,4.659,6,P6_3,173,hexagonal,-368.9214,-3.7018,-0.0011,intercalated ion,,True,0.0,,-0.0011,-0.0011
49493,Au1Br12Ir2Pr12Ru1,20f658540f,Pr12Ir2RuAuBr12,"['Br', 'Ru', 'Pr', 'Ir', 'Au']",28,920.3848,6.0119,2,C2,5,monoclinic,-151.8381,-1.5928,-0.0031,3D,inf,True,0.0,,-0.0031,-0.0028
49514,Cl6Pd1Tl1,20f8c46d43,TlPdCl6,"['Cl', 'Pd', 'Tl']",8,233.1157,3.7292,1,P1,1,triclinic,-26.4928,-0.9825,-0.0852,2D,,True,0.0,,-0.0852,-0.0064
49523,Br8Re1Tc1Y8,20fa89e29f,Y8ReTcBr8,"['Br', 'Y', 'Tc', 'Re']",18,539.703,5.0295,2,C2,5,monoclinic,-113.751,-1.451,-0.0431,3D,0.0106,True,0.0,,-0.0431,-0.0412
49579,Cl5Gd2I1,2103477c87,Gd2ICl5,"['Cl', 'I', 'Gd']",8,311.881,3.294,1,P1,1,triclinic,-59.6924,-2.5967,-0.3351,2D,1.3588,True,0.0,,-0.3351,-0.0255
49582,Br16Cs1Ga4In2Rb1,2103a1ce01,CsRbIn2(GaBr4)4,"['Ga', 'Br', 'Rb', 'In', 'Cs']",24,982.0815,3.3907,2,P2,3,monoclinic,-79.1851,-1.3959,-0.0035,intercalated ion,inf,True,0.0,,-0.0035,-0.0031
49599,K4O6Pr1Pu1,2106d78cc9,K4PrPuO6,"['O', 'K', 'Pr', 'Pu']",12,218.1636,4.8508,1,P1,1,triclinic,-84.8734,-2.6413,-0.0622,intercalated ion,,True,0.0,,-0.0622,-0.0622
49600,Hg1O9Os3,2106e04040,Hg(OsO3)3,"['O', 'Os', 'Hg']",13,176.9318,8.59,6mm,P6mm,183,hexagonal,-96.4719,-1.3811,-0.0336,3D,0.0023,True,0.0,,-0.0336,-0.0199
49601,Cl18Ho1Nb4Ta2,2107350ef0,HoTa2(Nb2Cl9)2,"['Cl', 'Nb', 'Ho', 'Ta']",25,672.2578,3.7956,1,P1,1,triclinic,-149.1146,-1.8855,-0.0245,3D,0.1291,True,0.0,,-0.0245,-0.0118
49612,Bi4O14Sb2Sm1Tl1,210857d49b,SmTlBi4(SbO7)2,"['O', 'Sb', 'Sm', 'Tl', 'Bi']",22,321.3229,8.5692,1,P1,1,triclinic,-143.7385,-1.9804,-0.0033,3D,,True,0.0,,-0.0033,-0.0033
49650,Al2Cl4Rb2Se2,210ed72de7,RbAlSeCl2,"['Al', 'Cl', 'Se', 'Rb']",10,343.3146,2.5375,2,P2_1,4,monoclinic,-42.5626,-1.8724,-0.0254,intercalated ion,,False,0.0,,-0.0254,-0.0046
49796,As3O22Te6V1,2124a7dcfd,VTe6As3O22,"['O', 'V', 'As', 'Te']",32,527.759,4.3839,1,P1,1,triclinic,-203.2007,-1.6383,-0.0072,2D,2.777,False,0.0,,-0.0072,-0.006
49860,Cl18Cs6Tm1Y3,2130408125,Cs6Y3TmCl18,"['Cl', 'Y', 'Cs', 'Tm']",28,966.8745,3.2137,3,R3,146,trigonal,-135.4684,-2.6053,-0.0003,intercalated ion,,True,0.0,,-0.0003,-0.0002
49895,Cl26Os2P4,21359edb24,P2OsCl13,"['P', 'Cl', 'Os']",32,1043.416,2.2696,mm2,Cmc2_1,36,orthorhombic,-126.7892,-1.0819,-0.0524,0D,,False,0.0,,-0.0524,-0.0499
49918,O13Pb4Ta2W2,213a5e3da4,Ta2Pb4W2O13,"['O', 'Ta', 'W', 'Pb']",21,308.662,9.5027,mm2,Imm2,44,orthorhombic,-177.6079,-2.3239,-0.0085,3D,0.1067,True,0.0,,-0.0085,-0.006
49925,Br12Ir1La5Na1Pr1,213c1f8fc9,NaLa5PrIrBr12,"['Na', 'Br', 'La', 'Pr', 'Ir']",20,766.8394,4.3514,1,P1,1,triclinic,-101.4015,-2.1068,-0.0187,intercalated ion,0.3351,True,0.0,,-0.0187,-0.0186
49942,Au1K1O6Te1,213e7d2a4a,KTeAuO6,"['O', 'K', 'Te', 'Au']",9,151.5647,5.036,32,P312,149,trigonal,-48.1983,-1.2203,-0.0883,intercalated ion,1.5393,True,0.0,,-0.0883,-0.0739
49952,Cd1Li2O8Pb3,2140423f83,Li2CdPb3O8,"['Li', 'O', 'Cd', 'Pb']",14,198.2382,7.3369,3m,R3m,160,trigonal,-77.2439,-1.5558,-0.0165,intercalated ion,0.6002,True,-0.0,,-0.0165,-0.0144
49963,O20Pr4Ti5V3,21424d404f,Pr4Ti5V3O20,"['O', 'Ti', 'V', 'Pr']",32,404.9633,5.2313,2,P2,3,monoclinic,-294.7672,-3.4361,-0.0152,3D,0.747,True,0.0,,-0.0152,-0.0146
49984,Bi3Br20Cs8Tm1,2147956a8d,Cs8TmBi3Br20,"['Br', 'Cs', 'Tm', 'Bi']",32,1370.0372,4.1903,m,Pm,6,monoclinic,-113.8399,-1.806,-0.023,intercalated ion,2.748,True,0.0,,-0.023,-0.0125
49995,Br1Eu8La2Sb6Se1,214914ff66,La2Eu8Sb6SeBr,"['Se', 'Br', 'Sb', 'La', 'Eu']",18,565.8549,6.9929,32,P312,149,trigonal,-151.242,-1.6182,-0.2345,3D,0.0003,True,0.0,,-0.2345,-0.2149
50032,Cs2F21K1V6,214ece48c3,Cs2KV6F21,"['F', 'K', 'V', 'Cs']",30,524.264,3.1975,2,C2,5,monoclinic,-194.6116,-3.2355,-0.0159,intercalated ion,,True,-0.0,,-0.0159,-0.0158
50069,Cs1O4,215411ff3d,CsO4,"['O', 'Cs']",5,102.8877,3.1779,mm2,Fmm2,42,orthorhombic,-24.4068,-0.7439,-0.156,intercalated ion,0.337,True,0.0,,-0.156,-0.1504
50134,Ca1Cd1Ir1O12Rh1Sr6,215dfd935d,Sr6CaCdIrRhO12,"['O', 'Ca', 'Sr', 'Rh', 'Cd', 'Ir']",22,322.6156,5.9981,3,R3,146,trigonal,-144.5928,-2.5431,-0.0228,intercalated ion,,True,0.0,,-0.0228,-0.0228
50198,Br15H8Sm1Th5,2167f1a082,SmTh5H8Br15,"['H', 'Br', 'Sm', 'Th']",29,780.9844,5.352,4mm,I4mm,107,tetragonal,-141.5386,-1.6571,-0.0194,3D,2.5932,True,0.0,,-0.0194,-0.0134
50261,As4Cs6Li2O14,2170329ebe,Cs3LiAs2O7,"['Li', 'O', 'As', 'Cs']",26,527.1827,4.205,222,C222_1,20,orthorhombic,-150.4766,-2.053,-0.031,intercalated ion,3.5218,True,0.0,,-0.031,-0.0274
50283,O12Re1Tb5Tc1,2173d4f8d5,Tb5ReTcO12,"['O', 'Tc', 'Tb', 'Re']",19,256.7964,8.2176,2,C2,5,monoclinic,-169.0145,-3.3506,-0.0402,3D,,True,0.0,,-0.0402,-0.04
50284,F28Os1Pr4Zr3,21740da473,Pr4Zr3OsF28,"['F', 'Zr', 'Pr', 'Os']",36,610.6282,4.2409,1,P1,1,triclinic,-250.7043,-3.9219,-0.0003,3D,0.2684,True,0.0,,-0.0003,-0.0001
50309,Br2C2Sc3Th1,2178ac6ed6,ThSc3(CBr)2,"['C', 'Sc', 'Br', 'Th']",8,149.1184,6.1328,3m,P3m1,156,trigonal,-56.9555,-1.1021,-0.095,3D,0.0009,True,0.0,,-0.095,-0.0034
50312,Gd5O12Os1Re1,217917d3ad,Gd5ReOsO12,"['O', 'Gd', 'Re', 'Os']",19,263.2046,8.5466,2,C2,5,monoclinic,-214.614,-3.215,-0.0162,3D,,True,0.0,,-0.0162,-0.0084
50326,Cs4F24Na4Ru4,217b456760,CsNaRuF6,"['F', 'Na', 'Ru', 'Cs']",36,661.5662,3.7244,mm2,Pna2_1,33,orthorhombic,-184.9404,-2.586,-0.0426,intercalated ion,0.0722,True,0.0,,-0.0426,-0.0321
50327,Ba3Ga3O14Si2Ta1,217b92dfe8,Ba3TaGa3(SiO7)2,"['O', 'Si', 'Ga', 'Ba', 'Ta']",23,339.6488,5.2912,32,P321,150,trigonal,-177.644,-3.0793,-0.0244,intercalated ion,,True,0.0,,-0.0244,-0.0082
50334,Cl6Tb1Y1,217d014bf4,TbYCl6,"['Cl', 'Y', 'Tb']",8,283.6421,2.6962,2,C2,5,monoclinic,-44.1567,-2.7456,-0.0117,2D,4.9713,True,0.0,,-0.0117,0.0
50347,F35Se1,217f8677ae,SeF35,"['F', 'Se']",36,690.402,1.7892,1,P1,1,triclinic,-96.3338,-0.7204,-0.4325,intercalated ion,,True,0.0,,-0.4325,-0.3367
50366,F36Ge1Tb1,2183ba21ef,TbGeF36,"['F', 'Ge', 'Tb']",38,698.3318,2.177,1,P1,1,triclinic,-119.7189,-1.096,-0.2718,0D,,True,0.0,,-0.2718,-0.2718
50399,Ba2O24Sb2V10,21890417e0,BaV5SbO12,"['O', 'V', 'Sb', 'Ba']",38,461.3789,5.0804,m,Cm,8,monoclinic,-319.0138,-2.5613,-0.0083,intercalated ion,,True,0.0,,-0.0083,-0.0069
50425,Bi1F2O2Tb1,218d64ce77,TbBi(OF)2,"['O', 'F', 'Tb', 'Bi']",6,88.9592,8.174,4mm,P4mm,99,tetragonal,-41.7855,-3.257,-0.0164,2D,2.8005,True,0.0,,-0.0164,-0.0164
50503,Br12Sr2Th1U1,219cad5b48,Sr2ThUBr12,"['Br', 'Sr', 'Th', 'U']",16,703.1376,3.7884,2,C2,5,monoclinic,-76.6207,-2.1808,-0.0112,intercalated ion,0.2163,True,-0.0,,-0.0112,-0.0112
50532,Bi1Lu5O18Te3,21a1075fbc,Lu5Bi(TeO6)3,"['O', 'Te', 'Lu', 'Bi']",27,367.422,7.9298,2,C2,5,monoclinic,-201.363,-2.8287,-0.0064,3D,2.9734,False,-0.0,,-0.0064,-0.0053
50551,Eu1Ir1O6Sb1,21a3d60dbb,EuSbIrO6,"['O', 'Sb', 'Eu', 'Ir']",9,126.9652,7.3494,32,P312,149,trigonal,-72.0225,-2.1195,-0.0322,3D,0.0024,True,0.0,,-0.0322,-0.0048
50573,F28La4Tc1Zr3,21a7091668,La4Zr3TcF28,"['F', 'Zr', 'Tc', 'La']",36,626.3557,3.8686,1,P1,1,triclinic,-254.5493,-4.0356,-0.0289,3D,1.822,True,0.0,,-0.0289,-0.0275
50707,Gd3O12Ta1Tb3,21bcf34b08,Tb3Gd3TaO12,"['O', 'Gd', 'Tb', 'Ta']",19,269.1266,8.1536,1,P1,1,triclinic,-199.3908,-3.7908,-0.0109,3D,0.0005,True,0.0,,-0.0109,-0.0104
50761,Be1Br2Gd2Ru1,21c5f5afdd,Gd2BeRuBr2,"['Be', 'Br', 'Ru', 'Gd']",6,156.0194,6.2198,3m,P3m1,156,trigonal,-51.9653,-1.2474,-0.103,intercalated ion,,True,0.0,,-0.103,-0.0276
50915,O4Pt3Rh5Ti16,21e35f6bb0,Ti16Pt3Rh5O4,"['O', 'Ti', 'Rh', 'Pt']",28,398.4589,8.0416,3m,R3m,160,trigonal,-239.9751,-1.3865,-0.039,3D,,True,0.0,,-0.039,-0.0261
50939,Bi3Ho3Nb2O14,21e5e494ce,Ho3Nb2Bi3O14,"['O', 'Nb', 'Ho', 'Bi']",22,313.1333,8.1217,1,P1,1,triclinic,-180.2297,-2.9699,-0.0016,3D,2.7244,True,0.0,,-0.0016,-0.0016
50959,As6Hf1Hg1O24Zr3,21e9d48a07,HfZr3Hg(AsO4)6,"['O', 'As', 'Zr', 'Hf', 'Hg']",35,579.0007,4.2625,3,R3,146,trigonal,-266.4648,-2.3959,-0.0682,3D,2.3373,True,0.0,,-0.0682,-0.0164
50968,Nb1O10Sb3,21ebe633b7,NbSb3O10,"['O', 'Nb', 'Sb']",14,170.7049,6.0134,1,P1,1,triclinic,-101.1053,-2.0812,-0.011,3D,1.5085,True,0.0,,-0.011,-0.0077
50977,Cs4O24Te2W6,21ed9430c8,Cs2Te(WO4)3,"['O', 'Te', 'Cs', 'W']",36,617.3566,6.1161,6mm,P6_3mc,186,hexagonal,-284.1827,-2.1615,-0.0511,,2.9774,,-0.0,,-0.0511,-0.0138
50982,F28La4Pt1Zr3,21ee3b9fe6,La4Zr3PtF28,"['F', 'Zr', 'La', 'Pt']",36,622.4167,4.1521,1,P1,1,triclinic,-246.2912,-3.9253,-0.0235,3D,2.6953,True,-0.0,,-0.0235,-0.0221
51047,Ac9Cl6La3Si14,21f89de9d6,Ac9La3(Si7Cl3)2,"['Si', 'Cl', 'La', 'Ac']",32,885.1465,5.7511,m,Pm,6,monoclinic,-177.7814,-1.2137,-0.2097,3D,,True,0.0,,-0.2097,-0.1716
51094,La4Lu2O14Ta2,2201775dc7,La2LuTaO7,"['O', 'La', 'Lu', 'Ta']",22,318.1943,7.7833,mm2,Ama2,40,orthorhombic,-206.8742,-3.8682,-0.0041,3D,3.6981,True,0.0,,-0.0041,-0.0041
51160,Br18Ce1P2Te1,220b030592,CeTe(PBr9)2,"['P', 'Br', 'Te', 'Ce']",22,935.9774,3.1365,1,P1,1,triclinic,-72.9041,-1.0698,-0.022,0D,,True,0.0,,-0.022,-0.0041
51173,B36O56Tl4,220d2ab6bf,TlB9O14,"['B', 'O', 'Tl']",96,1279.6246,2.7286,222,P222_1,17,orthorhombic,-789.7991,-2.7376,-0.0082,intercalated ion,,True,0.0,,-0.0082,-0.0061
51199,Bi1Mo6O24Pr1Sm2,2212e4413c,PrSm2Bi(MoO4)6,"['O', 'Mo', 'Pr', 'Sm', 'Bi']",34,633.7684,4.219,1,P1,1,triclinic,-285.3616,-2.4538,-0.0028,3D,3.6761,True,-0.0,,-0.0028,-0.0028
51212,Ce4Np3O16Pa1,221537043b,Ce4Np3PaO16,"['O', 'Ce', 'Pa', 'Np']",24,324.9762,8.9854,mm2,Pmm2,25,orthorhombic,-246.0637,-3.9502,-0.0973,3D,0.0003,True,0.0,,-0.0973,-0.0973
51272,Ge4O20Pr7Tb1,22223ad068,TbPr7(GeO5)4,"['O', 'Ge', 'Pr', 'Tb']",32,515.1643,5.6596,1,P1,1,triclinic,-259.465,-3.2473,-0.0948,3D,3.9718,True,0.0,,-0.0948,-0.0043
51295,Eu1Ho3O14Sb2Tl2,22252786ab,EuHo3Tl2(SbO7)2,"['O', 'Sb', 'Eu', 'Ho', 'Tl']",22,300.9286,8.4042,2,C2,5,monoclinic,-165.6109,-2.6963,-0.037,3D,0.0043,True,0.0,,-0.037,-0.026
51328,F28Hf3Nb1Pr4,222a3f4166,Pr4Hf3NbF28,"['F', 'Nb', 'Pr', 'Hf']",36,606.9111,4.7168,1,P1,1,triclinic,-262.7983,-4.1717,-0.0031,3D,0.2607,False,-0.0,,-0.0031,-0.0025
51353,Cl10Hg8La2S4,222e851a95,LaHg4S2Cl5,"['S', 'Cl', 'La', 'Hg']",24,766.381,5.125,2,P2_1,4,monoclinic,-80.3553,-1.3759,-0.0079,3D,2.5001,True,0.0,,-0.0079,-0.0073
51416,Cl18Re2Tc1W3,22389e53df,Re2Tc(WCl6)3,"['Cl', 'Tc', 'W', 'Re']",24,733.4083,3.7587,m,Cm,8,monoclinic,-136.6479,-1.2188,-0.0083,2D,0.1582,True,0.0,,-0.0083,-0.0061
51438,Cl23Lu1,223ca78421,LuCl23,"['Cl', 'Lu']",24,1009.3167,1.6294,2,C2,5,monoclinic,-68.463,-0.8927,-0.4498,intercalated molecule,,True,0.0,,-0.4498,-0.4352
51469,O24P6Ta1V2W1,2242d9657a,TaV2P6WO24,"['O', 'P', 'V', 'Ta', 'W']",34,479.1321,3.5922,1,P1,1,triclinic,-286.1038,-2.7026,-0.0095,intercalated ion,1.4815,True,0.0,,-0.0095,-0.0095
51497,Ba4Cl4O12Sr2Te4,2246d08f19,Ba2SrTe2(ClO3)2,"['O', 'Cl', 'Sr', 'Te', 'Ba']",26,560.6996,4.6459,m,Cm,8,monoclinic,-155.7369,-2.513,-0.006,intercalated ion,,False,0.0,,-0.006,-0.0055
51525,Bi4F28Pt3Sc1,224a94bc9c,ScBi4Pt3F28,"['F', 'Sc', 'Pt', 'Bi']",36,567.9811,5.8416,1,P1,1,triclinic,-181.7418,-2.4476,-0.0479,3D,0.0001,True,0.0,,-0.0479,-0.0479
51528,F16Hg8O4V4,224aaac4f2,VHg2OF4,"['O', 'F', 'V', 'Hg']",32,557.4577,6.4832,222,P2_12_12_1,19,orthorhombic,-157.8794,-2.1481,-0.0062,3D,1.9777,False,0.0,,-0.0062,-0.0047
51534,Br6Li1U1,224c4c5d82,LiUBr6,"['Li', 'Br', 'U']",8,317.2819,3.7912,2,C2,5,monoclinic,-36.9657,-1.743,-0.0121,intercalated ion,0.6563,True,0.0,,-0.0121,-0.0106
51580,Ag1F34Pd1,2256282e2e,AgPdF34,"['F', 'Pd', 'Ag']",36,666.4694,2.1433,1,P1,1,triclinic,-96.9912,-0.6663,-0.3119,0D,,True,0.0,,-0.3119,-0.2861
51584,Ca12La2O56Sr6V14,22569b71fa,Sr3Ca6LaV7O28,"['O', 'Ca', 'V', 'Sr', 'La']",90,1402.7268,3.4254,m,Cc,9,monoclinic,-723.7258,-3.0599,-0.0178,intercalated ion,inf,True,0.0,,-0.0178,-0.0166
51597,F1Na3O2,2258ca5609,Na3O2F,"['O', 'F', 'Na']",6,80.2826,2.4813,m,Cm,8,monoclinic,-27.0147,-1.8733,-0.0217,intercalated ion,1.697,True,0.0,,-0.0217,-0.0205
51620,F18Pa2U2,225d49277f,UPaF9,"['F', 'Pa', 'U']",22,314.338,6.7623,mm2,Fmm2,42,orthorhombic,-165.3992,-4.0627,-1.7156,3D,0.0031,False,0.0,,-1.7156,-0.3977
51689,Au1Br12Pr12Rh1Ru2,2268ead5ef,Pr12Ru2RhAuBr12,"['Br', 'Ru', 'Rh', 'Pr', 'Au']",28,912.8755,5.7331,2,C2,5,monoclinic,-149.352,-1.5411,-0.0014,3D,0.0012,False,0.0,,-0.0014,-0.0014
51691,Lu1O20P4U3,2269349cfb,LuU3(PO5)4,"['O', 'P', 'Lu', 'U']",28,416.1624,5.3186,1,P1,1,triclinic,-250.4682,-3.2665,-0.0141,3D,,True,0.0,,-0.0141,-0.0141
51715,B4Cl12Ho11Tb1,226d45db08,TbHo11(BCl3)4,"['B', 'Cl', 'Tb', 'Ho']",28,639.9169,6.3364,2,C2,5,monoclinic,-153.3733,-1.7654,-0.1015,3D,0.0171,True,-0.0,,-0.1015,-0.0611
51721,F1O5Re2,226e1587d1,Re2O5F,"['O', 'F', 'Re']",8,112.8238,6.9382,mm2,Amm2,38,orthorhombic,-69.0267,-2.1858,-0.0379,3D,0.0099,True,0.0,,-0.0379,-0.035
51784,Cu4Li1O8Y1,2277be2a27,LiY(CuO2)4,"['Li', 'O', 'Cu', 'Y']",14,149.6205,5.3053,-4,I-4,82,tetragonal,-87.0289,-1.6195,-0.0186,intercalated ion,0.637,True,0.0,,-0.0186,-0.0171
51834,F28Ho3In1W4,227f8638f0,Ho3In(WF7)4,"['F', 'In', 'Ho', 'W']",36,559.6835,5.5687,1,P1,1,triclinic,-242.5104,-3.3516,-0.0884,3D,,False,0.0,,-0.0884,-0.0751
51849,Ho2O18Os5Ti1,2281f3f91f,Ho2TiOs5O18,"['O', 'Ti', 'Ho', 'Os']",26,311.9009,8.6081,1,P1,1,triclinic,-219.497,-2.2014,-0.019,3D,0.0008,True,0.0,,-0.019,-0.0123
51875,Br1N12P6Sn2Tm1,2287912c3e,TmSn2P6BrN12,"['N', 'P', 'Br', 'Sn', 'Tm']",22,321.5716,4.3385,m,Cm,8,monoclinic,-162.7839,-0.7334,-0.0942,3D,,True,0.0,,-0.0942,-0.0841
51921,F34Se1Te1,228f73ef3c,TeSeF34,"['F', 'Se', 'Te']",36,708.8099,1.9972,1,P1,1,triclinic,-111.9592,-1.1203,-0.368,0D,,False,0.0,,-0.368,-0.2721
51935,Ce1F18La1Np4,22914a5a76,LaCeNp4F18,"['F', 'La', 'Ce', 'Np']",24,328.1453,7.9397,1,P1,1,triclinic,-194.2803,-4.0506,-0.0517,3D,,True,0.0,,-0.0517,-0.0459
51971,O6Ru3Ta5Zr18,22973b3467,Zr18Ta5(RuO2)3,"['O', 'Zr', 'Ru', 'Ta']",32,565.7018,8.6475,m,Pm,6,monoclinic,-311.474,-1.2755,-0.0104,3D,0.0004,False,0.0,,-0.0104,-0.0103
51976,F20Ho3Rb2Y3,2297ac2b59,Rb2Y3Ho3F20,"['F', 'Rb', 'Y', 'Ho']",28,401.9986,5.4212,mm2,Fmm2,42,orthorhombic,-193.2055,-4.281,-0.0523,intercalated ion,7.0628,True,0.0,,-0.0523,-0.0076
51986,Ca3Mg2O12Ru2Sm1,2299030e33,Ca3SmMg2(RuO6)2,"['O', 'Mg', 'Ca', 'Ru', 'Sm']",20,237.0404,4.9971,1,P1,1,triclinic,-145.2348,-2.6687,-0.0419,intercalated ion,,True,0.0,,-0.0419,-0.0419
51987,F3H9Pd2Sr4,229973ec9d,Sr4H9Pd2F3,"['H', 'F', 'Sr', 'Pd']",18,226.6436,4.6113,2,C2,5,monoclinic,-79.9272,-1.4745,-0.0747,intercalated ion,1.3228,True,0.0,,-0.0747,-0.0328
52024,Np2O14Pr5Tb1,229f0e983e,TbPr5Np2O14,"['O', 'Pr', 'Tb', 'Np']",22,346.697,7.4787,1,P1,1,triclinic,-206.4652,-3.7618,-0.089,3D,0.0916,True,0.0,,-0.089,-0.038
52060,Au2Gd5O14Tb1,22a520b881,TbGd5(AuO7)2,"['O', 'Gd', 'Tb', 'Au']",22,308.967,8.4009,m,Pm,6,monoclinic,-213.1941,-2.8299,-0.017,3D,,True,0.0,,-0.017,-0.0103
52078,Bi1Cu4Hg1O8,22a7f12a18,Cu4HgBiO8,"['O', 'Cu', 'Hg', 'Bi']",14,165.0169,7.9672,-4,I-4,82,tetragonal,-74.6259,-1.0323,-0.0583,3D,0.0092,True,0.0,,-0.0583,-0.0582
52079,Ho2O18V6,22a8715ed3,HoV3O9,"['O', 'V', 'Ho']",26,494.0371,3.104,m,Cc,9,monoclinic,-223.5063,-2.7221,-0.0066,3D,2.8133,True,-0.0,,-0.0066,-0.0066
52086,Nb1O20P4Tc2W1,22aa9205ae,NbTc2P4WO20,"['O', 'P', 'Nb', 'Tc', 'W']",28,405.6596,3.7522,m,Pm,6,monoclinic,-233.6703,-2.4742,-0.0398,3D,0.1302,True,0.0,,-0.0398,-0.038
52103,Br12La4Pr8Si4,22ad880867,LaPr2SiBr3,"['Si', 'Br', 'La', 'Pr']",28,908.8786,5.0317,1,P1,1,triclinic,-147.0606,-1.7045,-0.0918,3D,0.0078,False,0.0,,-0.0918,-0.0705
52127,Ba8Br1Sb5,22b2bf6e5f,Ba8Sb5Br,"['Br', 'Sb', 'Ba']",14,592.706,5.0074,-4,I-4,82,tetragonal,-55.9759,-1.3102,-0.057,intercalated ion,0.9393,True,0.0,,-0.057,-0.021
52129,F28Hf3Ru1Y4,22b300a10a,Y4Hf3RuF28,"['F', 'Y', 'Ru', 'Hf']",36,550.988,4.5933,1,P1,1,triclinic,-262.8914,-4.0099,-0.0118,3D,0.1061,True,0.0,,-0.0118,-0.0088
52161,Bi1O6Pd1Sb1,22b947d03c,BiSbPdO6,"['O', 'Pd', 'Sb', 'Bi']",9,122.2875,7.2397,32,P312,149,trigonal,-56.5396,-1.517,-0.0462,3D,,True,0.0,,-0.0462,-0.023
52177,Ac10Cl2Pb5Sn1,22bc324ea2,Ac10SnPb5Cl2,"['Cl', 'Sn', 'Pb', 'Ac']",18,643.7859,9.0164,mm2,Amm2,38,orthorhombic,-83.9385,-0.9143,-0.4095,3D,0.0001,True,0.0,,-0.4095,-0.1429
52255,O16Os4Sc1Tm3,22c91a4e5b,Tm3Sc(OsO4)4,"['O', 'Sc', 'Tm', 'Os']",24,289.6299,8.9937,1,P1,1,triclinic,-204.8853,-2.5437,-0.0284,3D,0.0101,True,-0.0,,-0.0284,-0.0237
52261,Al3F18Hg3Na3,22ca5bf4cc,NaAlHgF6,"['F', 'Na', 'Al', 'Hg']",27,374.2955,4.8519,32,P321,150,trigonal,-131.0706,-2.9833,-0.0047,intercalated ion,2.9816,True,0.0,,-0.0047,-0.0039
52299,Ag12As2Br2S10,22d13a4512,Ag6AsS5Br,"['S', 'As', 'Br', 'Ag']",26,610.6134,5.2342,m,Cc,9,monoclinic,-97.3639,-0.3622,-0.0087,3D,0.2874,True,-0.0,,-0.0087,-0.0086
52315,Bi1O8Pt4Sr1,22d3cedad1,SrBi(PtO2)4,"['O', 'Sr', 'Pt', 'Bi']",14,190.8004,10.4865,1,P1,1,triclinic,-89.2202,-1.4124,-0.0557,3D,0.0258,True,0.0,,-0.0557,-0.0471
52316,Np1O12Tb2Y4,22d3f05e22,Tb2Y4NpO12,"['O', 'Y', 'Tb', 'Np']",19,273.9984,6.6814,1,P1,1,triclinic,-181.7687,-3.9111,-0.137,3D,,False,0.0,,-0.137,-0.1353
52386,Cl16Ga4Hg2,22df6e18d6,Ga2HgCl8,"['Cl', 'Ga', 'Hg']",22,691.0785,2.9971,m,Pc,7,monoclinic,-73.5117,-1.4189,-0.0032,2D,2.5666,True,-0.0,,-0.0032,-0.0002
52499,Cs2O12U3Zr1,22f1c8b6bb,Cs2ZrU3O12,"['O', 'Zr', 'Cs', 'U']",18,346.9386,6.0456,2,C2,5,monoclinic,-166.0547,-3.4704,-0.0203,intercalated ion,1.8479,True,0.0,,-0.0203,-0.0203