Unnamed: 0,Composition,MaterialId,Reduced Formula,Elements,NSites,Volume,Density,Point Group,Space Group,Space Group Number,Crystal System,Corrected Energy,Formation Energy Per Atom,Decomposition Energy Per Atom,Dimensionality Cheon,Bandgap,Is Train,Decomposition Energy Per Atom All,Decomposition Energy Per Atom Relative,Decomposition Energy Per Atom MP,Decomposition Energy Per Atom MP OQMD
56675,Cl18Na6Pa1Zr2,25b0973882,Na6Zr2PaCl18,"['Na', 'Cl', 'Zr', 'Pa']",27,758.681,2.6036,3m,P3m1,156,trigonal,-128.1053,-2.2328,-0.0215,intercalated ion,0.6128,True,0.0,,-0.0215,-0.0199
56801,Ba6In2O12Tb1Y1,25c444e90d,Ba6TbYIn2O12,"['O', 'Y', 'In', 'Ba', 'Tb']",22,389.6506,6.3644,32,R32,155,trigonal,-152.4909,-2.9544,-0.0242,intercalated ion,3.1333,True,0.0,,-0.0242,-0.0242
56815,Ca2Li2O12Ru2Y2,25c5bb3778,LiCaYRuO6,"['Li', 'O', 'Ca', 'Y', 'Ru']",20,232.603,4.7544,m,Pc,7,monoclinic,-150.2145,-2.5764,-0.0181,intercalated ion,,True,0.0,,-0.0181,-0.0172
56847,Cd4Cs4O18Si6,25cbf941bf,Cs2Cd2(SiO3)3,"['O', 'Si', 'Cd', 'Cs']",32,537.1476,4.4447,m,Pc,7,monoclinic,-212.6285,-2.6169,-0.016,intercalated ion,3.0325,True,0.0,,-0.016,-0.0134
56861,Ba6O51Si8Ti2W10,25ce2a95ab,Ba6Ti2Si8W10O51,"['O', 'Si', 'Ti', 'Ba', 'W']",77,1125.9902,5.6022,1,P1,1,triclinic,-672.9205,-2.8609,-0.012,intercalated ion,,False,-0.0,,-0.012,-0.0044
56905,La1O20Pr3Si4Y4,25d5e7ce75,LaPr3Y4(SiO5)4,"['O', 'Si', 'Y', 'La', 'Pr']",32,470.9405,4.7586,1,P1,1,triclinic,-286.0248,-3.7569,-0.0186,3D,,True,0.0,,-0.0186,-0.0038
56912,H2Li2O6Rb2,25d77d2110,RbLiHO3,"['H', 'Li', 'O', 'Rb']",12,209.8231,2.2383,2,P2_1,4,monoclinic,-59.8117,-1.4633,-0.0794,intercalated ion,0.245,False,0.0,,-0.0794,-0.0791
56929,Cl16Sn1Ti3,25da8422e2,Ti3SnCl16,"['Cl', 'Ti', 'Sn']",20,830.2665,1.6591,1,P1,1,triclinic,-95.6279,-1.9178,-0.0001,0D,3.4769,False,0.0,,-0.0001,-0.0001
56934,K2Nb8O26V2,25db819b43,KNb4VO13,"['O', 'K', 'V', 'Nb']",38,576.8411,3.8555,mm2,Cmc2_1,36,orthorhombic,-339.7769,-2.8929,-0.0034,intercalated ion,2.3337,False,0.0,,-0.0034,-0.0034
56997,Br1Cl5Ti2,25e847355d,Ti2BrCl5,"['Cl', 'Ti', 'Br']",8,236.4359,2.4785,mm2,Amm2,38,orthorhombic,-42.7064,-2.0045,-0.0074,1D,0.1159,True,0.0,,-0.0074,-0.0022
57071,As4Br8Hg8Zn2,25f4d79a7c,ZnHg4(AsBr2)2,"['Zn', 'As', 'Br', 'Hg']",22,774.6992,5.7326,2,P2_1,4,monoclinic,-50.329,-0.6204,-0.0226,3D,0.9734,True,0.0,,-0.0226,-0.0196
57074,F28Hf1Pr4Pt1Zr2,25f53c2090,Pr4HfZr2PtF28,"['F', 'Zr', 'Pr', 'Hf', 'Pt']",36,605.8445,4.5268,1,P1,1,triclinic,-246.5724,-3.9112,-0.0029,3D,2.6901,False,0.0,,-0.0029,-0.0026
57125,Cd4In2O12Sb2,25fd4cdae8,Cd2InSbO6,"['O', 'Cd', 'In', 'Sb']",20,278.7571,6.6408,1,P1,1,triclinic,-112.414,-1.7793,-0.0097,3D,0.6976,True,0.0,,-0.0097,-0.0097
57145,Li2N6O18Tl4,2601a802c6,LiTl2(NO3)3,"['Li', 'N', 'O', 'Tl']",30,474.6004,4.2106,mm2,Pmc2_1,26,orthorhombic,-186.1324,-1.126,-0.0037,intercalated ion,,True,0.0,,-0.0037,-0.0028
57175,F30Np3Tb1U4,26079e61b4,TbNp3U4F30,"['F', 'Tb', 'U', 'Np']",38,622.86,6.377,2,C2,5,monoclinic,-298.4776,-4.0129,-0.0432,3D,0.001,True,0.0,,-0.0432,-0.0427
57183,O24Tb3V4W4Y1,26090b49ba,Tb3YV4(WO6)4,"['O', 'V', 'Y', 'Tb', 'W']",36,438.1397,7.1585,1,P1,1,triclinic,-330.7484,-2.8739,-0.0095,3D,,True,0.0,,-0.0095,-0.0019
57187,F28Ru4Tb1Tm3,260990ac3b,TbTm3Ru4F28,"['F', 'Ru', 'Tb', 'Tm']",36,519.1399,5.1241,1,P1,1,triclinic,-221.234,-3.1265,-0.1534,3D,0.0006,False,0.0,,-0.1534,-0.0236
57272,Ge1Ir1O12Pr5,261899fe48,Pr5GeIrO12,"['O', 'Ge', 'Pr', 'Ir']",19,285.0332,6.766,2,C2,5,monoclinic,-155.6108,-3.0984,-0.0656,3D,0.3704,True,0.0,,-0.0656,-0.0175
57282,Br18Rb1Sm1Ta6,261c3d04d1,RbSm(TaBr3)6,"['Br', 'Rb', 'Sm', 'Ta']",26,795.2814,5.7624,3,R3,146,trigonal,-145.2134,-1.4963,-0.0041,intercalated ion,1.4502,True,0.0,,-0.0041,-0.0041
57309,Br2N2Pa1Y1,2620e61b12,YPa(BrN)2,"['N', 'Br', 'Y', 'Pa']",6,145.0246,5.8139,4mm,P4mm,99,tetragonal,-48.7195,-2.1319,-0.2921,intercalated ion,,True,0.0,,-0.2921,-0.2156
57356,Br12La5Ru2Tb3,262c369a36,La5Tb3(RuBr6)2,"['Br', 'Ru', 'La', 'Tb']",22,848.522,4.5642,m,Pm,6,monoclinic,-118.1115,-1.8789,-0.0149,3D,0.0074,True,0.0,,-0.0149,-0.0149
57367,Ba12O34Tb3Ti8Y1,262de2fcbf,Ba12Tb3YTi8O34,"['O', 'Ti', 'Y', 'Ba', 'Tb']",58,937.2277,5.5642,3m,P3m1,156,trigonal,-479.7015,-3.5329,-0.0002,intercalated ion,,True,0.0,,-0.0002,-0.0002
57368,Hf5Ir6O2Zr5,262de6b249,Hf5Zr5(Ir3O)2,"['O', 'Zr', 'Hf', 'Ir']",18,309.0938,13.6127,mm2,Amm2,38,orthorhombic,-179.9646,-1.3619,-0.0211,3D,0.0036,True,0.0,,-0.0211,-0.0181
57417,Ir3O24Pa1Pr8,26372a4ea9,Pr8Pa(IrO8)3,"['O', 'Pr', 'Ir', 'Pa']",36,544.2417,7.0753,1,P1,1,triclinic,-298.0978,-2.9186,-0.0439,3D,,True,0.0,,-0.0439,-0.0334
57422,F20O2Pt2Re2,263809bcfe,RePtOF10,"['O', 'F', 'Re', 'Pt']",26,451.151,4.3231,2,P2,3,monoclinic,-137.9387,-2.0301,-0.0408,0D,0.0966,True,0.0,,-0.0408,-0.0371
57439,O4Pd3Rh5Ti16,263ae29444,Ti16Pd3Rh5O4,"['O', 'Ti', 'Rh', 'Pd']",28,398.4589,6.9331,3m,R3m,160,trigonal,-234.6679,-1.2924,-0.0203,3D,0.004,True,0.0,,-0.0203,-0.018
57473,B1Br20Rb8Ti1Zr5,2641d88aae,Rb8Zr5TiBBr20,"['B', 'Ti', 'Br', 'Rb', 'Zr']",35,1240.5593,3.7434,4mm,I4mm,107,tetragonal,-163.3919,-1.8713,-0.0096,intercalated ion,inf,False,0.0,,-0.0096,-0.0064
57499,Bi3Ho3Mo2O14,264727562a,Ho3Bi3(MoO7)2,"['O', 'Mo', 'Ho', 'Bi']",22,310.3067,8.2282,1,P1,1,triclinic,-174.2756,-2.6316,-0.0265,3D,1.6538,True,0.0,,-0.0265,-0.0189
57585,F30La1Pa7,26584c3239,LaPa7F30,"['F', 'La', 'Pa']",38,657.2528,5.8769,2,C2,5,monoclinic,-287.514,-4.1745,-3.7016,3D,,False,0.0,,-3.7016,-1.0337
57600,Al3As4Cd4Ga1O20,265c04ee92,Al3Cd4Ga(AsO5)4,"['O', 'Al', 'Ga', 'As', 'Cd']",32,493.448,4.1055,1,P1,1,triclinic,-204.2458,-2.1467,-0.009,3D,,True,0.0,,-0.009,-0.0052
57605,As1Ir3O24Pr8,265c94f6f1,Pr8As(IrO8)3,"['O', 'As', 'Pr', 'Ir']",36,526.8764,6.8165,1,P1,1,triclinic,-285.5415,-2.7047,-0.0463,3D,0.0008,True,0.0,,-0.0463,-0.0402
57649,Br12C2Rb1Sm5Y1,26638b1597,RbSm5Y(CBr6)2,"['C', 'Br', 'Rb', 'Y', 'Sm']",21,684.641,4.6302,1,P1,1,triclinic,-110.1055,-1.9509,-0.0896,intercalated ion,0.0117,True,0.0,,-0.0896,-0.0334
57653,F28Lu1Pd1Pt3Tm3,2663a359e6,Tm3LuPdPt3F28,"['F', 'Pd', 'Tm', 'Lu', 'Pt']",36,504.9106,6.2664,1,P1,1,triclinic,-199.603,-2.9095,-0.1616,3D,1.2578,False,0.0,,-0.1616,-0.036
57712,F28Pt3Rh1Tb4,266cd0536e,Tb4Pt3RhF28,"['F', 'Rh', 'Tb', 'Pt']",36,530.9292,5.8043,1,P1,1,triclinic,-203.4764,-2.94,-0.0095,3D,0.0007,True,0.0,,-0.0095,-0.0088
57740,Bi1O13Pb4Sb3,26710c301d,BiSb3Pb4O13,"['O', 'Sb', 'Pb', 'Bi']",21,324.9608,8.2324,3m,R3m,160,trigonal,-132.807,-1.7789,-0.0085,3D,1.0774,True,-0.0,,-0.0085,-0.0084
57769,Br7Pm1,267535d852,PmBr7,"['Br', 'Pm']",8,374.564,3.1225,1,P1,1,triclinic,-27.2004,-1.3739,-0.2424,intercalated molecule,,True,0.0,,-0.2424,-0.2259
57773,B1Br20Hf3Rb8Zr3,26758c9c4c,Rb8Hf3Zr3BBr20,"['B', 'Br', 'Rb', 'Zr', 'Hf']",35,1237.4658,4.1622,mm2,Fmm2,42,orthorhombic,-168.1343,-1.8674,-0.0335,intercalated ion,inf,False,0.0,,-0.0335,-0.0114
57814,Eu1O10Pd4Pr3,267c246bf9,Pr3Eu(Pd2O5)2,"['O', 'Pd', 'Pr', 'Eu']",18,254.6368,7.567,m,Pm,6,monoclinic,-138.8583,-2.4458,-0.0756,3D,,True,0.0,,-0.0756,-0.06
57836,B2Br12Lu3Tm5,26807e369f,Tm5Lu3(BBr6)2,"['B', 'Br', 'Tm', 'Lu']",22,678.4549,5.7518,m,Pm,6,monoclinic,-108.6983,-1.807,-0.0892,3D,inf,True,0.0,,-0.0892,-0.0362
57842,Li2Mg2O16Sn2V6,268145cbc7,LiMgV3SnO8,"['Li', 'O', 'Mg', 'V', 'Sn']",28,312.425,4.5791,6mm,P6_3mc,186,hexagonal,-219.7103,-2.5358,-0.0167,3D,1.8022,True,0.0,,-0.0167,-0.015
57863,Au4Bi2O12Tb2,2683f2a8d7,TbBi(AuO3)2,"['O', 'Tb', 'Au', 'Bi']",20,293.4124,9.7097,mm2,Pmc2_1,26,orthorhombic,-123.4469,-1.6964,-0.0395,3D,,False,0.0,,-0.0395,-0.0143
57878,B1Br12Nb1Se1,26860717a9,NbBSeBr12,"['B', 'Se', 'Br', 'Nb']",15,608.0302,3.1175,m,Cm,8,monoclinic,-54.934,-1.0009,-0.0336,0D,1.6333,True,0.0,,-0.0336,-0.0021
57897,As12Hf7Li4O48Zr1,268a82a7b4,Li4Hf7Zr(AsO4)12,"['Li', 'O', 'As', 'Zr', 'Hf']",72,1105.8109,4.5582,1,P1,1,triclinic,-564.9696,-2.5788,-0.078,,4.0362,,0.0,,-0.078,-0.0479
57898,Br12Ca1La1Os1Y5,268a84f655,CaLaY5OsBr12,"['Ca', 'Br', 'Y', 'La', 'Os']",20,684.3748,4.3009,1,P1,1,triclinic,-110.2623,-2.0059,-0.0099,intercalated ion,0.3895,True,0.0,,-0.0099,-0.007
57993,Ac6Ga2O12,269a67c32d,Ac3GaO6,"['O', 'Ga', 'Ac']",20,353.9084,7.9456,mm2,Cmc2_1,36,orthorhombic,-159.1658,-3.4503,-0.0493,3D,3.2892,True,0.0,,-0.0493,-0.0443
58071,K4O6Pa1Sm1,26a7c24c16,K4SmPaO6,"['O', 'K', 'Sm', 'Pa']",12,216.9457,4.8511,2,C2,5,monoclinic,-83.1988,-2.903,-0.1022,intercalated ion,3.5575,True,0.0,,-0.1022,-0.1022
58109,F22Ru4,26aea19c5b,Ru2F11,"['F', 'Ru']",26,458.7695,2.9762,2,P2,3,monoclinic,-130.2218,-1.9643,-0.0047,0D,0.0004,True,-0.0,,-0.0047,-0.0011
58112,Br2Ga2K12Se8,26af2a84aa,K6GaSe4Br,"['K', 'Ga', 'Se', 'Br']",24,804.0062,2.8917,6mm,P6_3mc,186,hexagonal,-84.4601,-1.4099,-0.0045,intercalated ion,,True,0.0,,-0.0045,-0.0045
58136,F24La1Pa5,26b2b65b0d,LaPa5F24,"['F', 'La', 'Pa']",30,491.4024,5.9137,2,C2,5,monoclinic,-224.9735,-4.2196,-3.6207,3D,,False,0.0,,-3.6207,-1.2068
58141,In1O18Tb1V6,26b381c526,TbV6InO18,"['O', 'V', 'In', 'Tb']",26,476.6158,3.022,1,P1,1,triclinic,-215.8664,-2.4967,-0.011,3D,,True,0.0,,-0.011,-0.011
58145,C2Ce1O2Tb3,26b49ccd74,Tb3Ce(CO)2,"['C', 'O', 'Ce', 'Tb']",8,124.5229,8.9734,mm2,Imm2,44,orthorhombic,-62.9569,-1.8464,-0.0451,3D,,False,0.0,,-0.0451,-0.0444
58164,Na2O24Sb6Se4,26b999c17b,NaSb3(SeO6)2,"['O', 'Na', 'Se', 'Sb']",36,570.2766,4.2989,6mm,P6_3mc,186,hexagonal,-221.0855,-1.6923,-0.0312,intercalated ion,2.7104,True,0.0,,-0.0312,-0.0312
58240,F28Tb3Tm1Zr4,26c889105f,Tb3TmZr4F28,"['F', 'Zr', 'Tb', 'Tm']",36,568.0577,4.5092,1,P1,1,triclinic,-258.7679,-4.241,-0.0049,3D,6.0235,True,0.0,,-0.0049,-0.0034
58266,Br16Ga2Nb1Ta1,26ce34be2a,TaNb(GaBr8)2,"['Ga', 'Br', 'Nb', 'Ta']",20,803.824,3.4948,mm2,Amm2,38,orthorhombic,-80.4387,-1.3116,-0.0039,0D,1.6642,True,0.0,,-0.0039,-0.0039
58320,Ho5O12Rh1Se1,26d5dbdd09,Ho5RhSeO12,"['O', 'Se', 'Rh', 'Ho']",19,247.415,8.0439,2,C2,5,monoclinic,-152.1059,-3.1031,-0.0099,3D,1.448,True,0.0,,-0.0099,-0.0099
58380,Cl6P1Rh1Te12,26dfa04351,Te12PRhCl6,"['P', 'Cl', 'Rh', 'Te']",20,616.1219,5.0609,32,R32,155,trigonal,-76.0233,-0.7217,-0.2004,intercalated ion,0.9492,False,0.0,,-0.2004,-0.1617
58410,Br12Ho5Si2Tb3,26e3eb60d5,Tb3Ho5(SiBr6)2,"['Si', 'Br', 'Tb', 'Ho']",22,751.5678,5.118,m,Pm,6,monoclinic,-108.8721,-1.8892,-0.0556,3D,0.0057,True,0.0,,-0.0556,-0.0233
58443,Na4O6Ru1Tm1,26eab17520,Na4TmRuO6,"['O', 'Na', 'Ru', 'Tm']",12,149.815,5.076,2,C2,5,monoclinic,-75.3881,-2.2217,-0.0036,intercalated ion,0.6682,True,0.0,,-0.0036,-0.0029
58456,O12Rh1Ti1Tm5,26ec5ac601,Tm5TiRhO12,"['O', 'Ti', 'Rh', 'Tm']",19,242.2168,8.1406,2,C2,5,monoclinic,-162.9092,-3.4681,-0.0106,3D,0.07,True,0.0,,-0.0106,-0.0102
58611,Cl8S9Ta4,27073939b1,Ta4S9Cl8,"['S', 'Cl', 'Ta']",21,638.5766,3.3701,4mm,I4mm,107,tetragonal,-129.7865,-1.4447,-0.058,0D,1.3914,True,0.0,,-0.058,-0.0363
58654,Hg7La4O4Sn1,270db6a4a7,La4SnHg7O4,"['O', 'Sn', 'La', 'Hg']",16,383.4971,9.2768,1,P1,1,triclinic,-74.7244,-1.8158,-0.0444,3D,0.0123,True,0.0,,-0.0444,-0.042
58675,Cl20Nb2U2,271071a3ca,UNbCl10,"['Cl', 'Nb', 'U']",24,833.7839,2.7303,2,P2_1,4,monoclinic,-126.3695,-1.9422,-0.003,0D,,True,0.0,,-0.003,-0.0026
58681,La5Np1O12Pr1,27116863b9,La5PrNpO12,"['O', 'La', 'Pr', 'Np']",19,317.007,6.6233,1,P1,1,triclinic,-175.0202,-3.8545,-0.1784,3D,0.7981,True,0.0,,-0.1784,-0.1458
58685,Br12Os1Pr1Sm5Sr1,2711ad698b,SrPrSm5OsBr12,"['Br', 'Sr', 'Pr', 'Sm', 'Os']",20,728.1866,4.8558,1,P1,1,triclinic,-100.5487,-1.9807,-0.0343,intercalated ion,0.0051,True,-0.0,,-0.0343,-0.0343
58700,Ir2O4Pd6Zr16,2713575e5c,Zr8IrPd3O2,"['O', 'Zr', 'Pd', 'Ir']",28,496.7597,8.5124,mm2,Imm2,44,orthorhombic,-241.7748,-1.3023,-0.0155,3D,0.0007,True,0.0,,-0.0155,-0.0077
58761,Lu5Np3O18Y1,271d5ba76f,YLu5Np3O18,"['O', 'Y', 'Lu', 'Np']",27,385.7828,8.4482,2,C2,5,monoclinic,-259.1479,-3.7841,-0.1654,3D,0.6586,True,0.0,,-0.1654,-0.1449
58768,Bi1O16Sb3Ta4,271ed4eb54,Ta4BiSb3O16,"['O', 'Sb', 'Ta', 'Bi']",24,340.149,7.5865,2,P2,3,monoclinic,-207.8995,-2.7093,-0.0014,3D,3.009,True,-0.0,,-0.0014,-0.0014
58781,Cl2Lu1Sn6Y9,2720e16445,Y9Lu(Sn3Cl)2,"['Cl', 'Y', 'Sn', 'Lu']",18,470.0983,6.2108,32,P312,149,trigonal,-109.9832,-1.0839,-0.0282,3D,0.0017,False,0.0,,-0.0282,-0.0221
58802,Ag1Br4O12Rb1,27246534dc,RbAg(BrO3)4,"['O', 'Br', 'Rb', 'Ag']",18,332.5737,3.5198,2,C2,5,monoclinic,-78.7722,-0.502,-0.0736,intercalated ion,1.3776,False,0.0,,-0.0736,-0.0509
58884,Be8Ca3Ge1O32P8,2732a69aca,Ca3Be8Ge(PO4)8,"['Be', 'O', 'P', 'Ca', 'Ge']",52,585.0743,2.9084,1,P1,1,triclinic,-398.4577,-3.007,-0.0031,intercalated ion,,False,0.0,,-0.0031,-0.0031
58916,Eu4O16Sc7Tm1,27383d9caa,Eu4TmSc7O16,"['O', 'Sc', 'Eu', 'Tm']",28,356.9492,6.2685,m,Pm,6,monoclinic,-274.1723,-3.7512,-0.0129,3D,0.0253,True,0.0,,-0.0129,-0.0041
58956,Br10Cl1Os1,273dcf1c4a,OsBr10Cl,"['Cl', 'Br', 'Os']",12,502.8735,3.3837,1,P1,1,triclinic,-36.6666,-0.6018,-0.3181,1D,,True,0.0,,-0.3181,-0.3163
58960,La3O10Os1Ru1,273e275d30,La3OsRuO10,"['O', 'Ru', 'La', 'Os']",15,201.7199,7.1454,m,Cm,8,monoclinic,-125.9596,-2.7447,-0.0054,3D,0.118,True,0.0,,-0.0054,-0.0032
58995,Cs2O24Pa6Se4,2743c89842,CsPa3(SeO6)2,"['O', 'Se', 'Cs', 'Pa']",36,752.7894,5.1878,6mm,P6_3mc,186,hexagonal,-300.3947,-3.0217,-0.3151,intercalated ion,3.1152,True,-0.0,,-0.3151,-0.3126
59003,Br12Hg1La12Ru3,2745b925fb,La12Hg(RuBr4)3,"['Br', 'Ru', 'La', 'Hg']",28,951.1827,5.4634,32,R32,155,trigonal,-151.463,-1.5879,-0.0098,3D,0.0016,True,0.0,,-0.0098,-0.0096
59032,Ba20Br1Si8Tl3,274bc63175,Ba20Tl3Si8Br,"['Si', 'Br', 'Ba', 'Tl']",32,1297.2806,4.6903,4,P4,75,tetragonal,-104.1406,-0.4262,-0.0327,intercalated ion,,False,0.0,,-0.0327,-0.0043
59036,Bi3O14Pr3Tb2,274bf92e82,Tb2Pr3Bi3O14,"['O', 'Pr', 'Tb', 'Bi']",22,340.4046,7.7636,1,P1,1,triclinic,-167.8955,-2.8792,-0.0499,3D,1.499,True,0.0,,-0.0499,-0.0499
59037,Br3S24Si1,274c02c32b,Si(S8Br)3,"['Si', 'S', 'Br']",28,1027.793,1.676,3m,R3m,160,trigonal,-125.1433,-0.5547,-0.3586,0D,,True,0.0,,-0.3586,-0.3586
59081,F28Lu1Pt4Tm3,2753df438b,Tm3LuPt4F28,"['F', 'Tm', 'Lu', 'Pt']",36,507.3873,6.526,1,P1,1,triclinic,-200.9913,-2.9233,-0.1655,3D,2.2427,True,0.0,,-0.1655,-0.0399
59084,As4Cu2K4O14,27541d672a,K2CuAs2O7,"['O', 'K', 'Cu', 'As']",24,417.3723,3.2113,-42m,P-42_1m,113,tetragonal,-143.3872,-1.785,-0.0085,intercalated ion,0.1704,True,0.0,,-0.0085,-0.0084
59094,Eu4O16Sb2W2,2755fa13f5,Eu2SbWO8,"['O', 'Sb', 'Eu', 'W']",24,330.3774,7.4139,m,Pc,7,monoclinic,-218.8019,-2.6788,-0.1004,3D,0.002,True,0.0,,-0.1004,-0.0318
59116,Bi2Gd1Ho5O14,27597926ba,GdHo5(BiO7)2,"['O', 'Gd', 'Ho', 'Bi']",22,312.2549,8.6355,1,P1,1,triclinic,-184.4919,-3.2014,-0.0691,3D,,True,0.0,,-0.0691,-0.0313
59154,F30Nb1Np7,2760ee309b,Np7NbF30,"['F', 'Nb', 'Np']",38,614.4022,6.2753,2,C2,5,monoclinic,-302.2708,-3.7945,-0.028,3D,0.0004,True,0.0,,-0.028,-0.0278
59189,Br18Lu1Rb6Rh3,2766174764,Rb6Lu(RhBr6)3,"['Br', 'Rb', 'Rh', 'Lu']",28,981.4189,4.1196,3m,P3m1,156,trigonal,-106.1164,-1.5769,-0.028,intercalated ion,1.3493,True,0.0,,-0.028,-0.0169
59206,O16Os4Tm1Y3,27699161d5,Y3Tm(OsO4)4,"['O', 'Y', 'Tm', 'Os']",24,301.853,7.9908,1,P1,1,triclinic,-208.8309,-2.5366,-0.0465,3D,0.0013,True,0.0,,-0.0465,-0.0417
59211,Ho3O24Tb2W4Y3,276a57d88a,Tb2Y3Ho3(WO6)4,"['O', 'Y', 'Tb', 'Ho', 'W']",36,463.6328,7.8748,1,P1,1,triclinic,-332.072,-3.3076,-0.0026,3D,,True,0.0,,-0.0026,-0.0024
59223,F28Ho1Pd2Pt2Tl3,276d486308,HoTl3Pd2Pt2F28,"['F', 'Pd', 'Ho', 'Pt', 'Tl']",36,512.5532,6.1978,1,P1,1,triclinic,-162.7172,-2.0841,-0.0191,3D,,False,-0.0,,-0.0191,-0.0115
59257,Br6Li2O18Pt1,2772dab9bf,Li2Pt(BrO3)6,"['Li', 'O', 'Br', 'Pt']",27,411.8241,3.9369,3,P3,143,trigonal,-125.5657,-0.6217,-0.1307,intercalated ion,,True,0.0,,-0.1307,-0.13
59267,Br2C2Tb1Tm3,27746fb447,TbTm3(CBr)2,"['C', 'Br', 'Tb', 'Tm']",8,161.2013,8.7513,3m,P3m1,156,trigonal,-48.6724,-1.1104,-0.0803,3D,0.0144,True,0.0,,-0.0803,-0.0099
59270,Cl8Hg1Pt1,2774f5a4eb,HgPtCl8,"['Cl', 'Pt', 'Hg']",10,366.8831,3.0746,2,P2,3,monoclinic,-29.8062,-0.8643,-0.2191,intercalated molecule,,True,0.0,,-0.2191,-0.1116
59289,K5Nb4O40P8Rb3V4,277743b57f,K5Rb3Nb4V4(PO5)8,"['O', 'P', 'K', 'V', 'Rb', 'Nb']",64,943.6619,3.3699,1,P1,1,triclinic,-506.4393,-2.8122,-0.0306,intercalated ion,,True,0.0,,-0.0306,-0.0255
59300,As6O24Sn3Ta1,277899be7e,TaSn3(AsO4)6,"['O', 'As', 'Sn', 'Ta']",34,538.232,4.2285,3,R3,146,trigonal,-234.7298,-1.8864,-0.0043,3D,,True,0.0,,-0.0043,-0.0041
59307,Ir1O12Ru1Sr6Ti1,277a04ee27,Sr6TiIrRuO12,"['O', 'Ti', 'Sr', 'Ru', 'Ir']",21,296.3181,5.9338,m,Cm,8,monoclinic,-153.7301,-2.7719,-0.0075,intercalated ion,0.0043,True,0.0,,-0.0075,-0.0046
59335,F24Np1Pd2Th1,277ef16914,ThNpPd2F24,"['F', 'Pd', 'Th', 'Np']",28,504.5401,3.7449,m,Pm,6,monoclinic,-141.6337,-2.3227,-0.1168,0D,0.0003,True,-0.0,,-0.1168,-0.0506
59349,O12Te2Ti2Zn2,27815706b3,TiZnTeO6,"['O', 'Ti', 'Zn', 'Te']",18,208.2392,5.3726,-42m,P-42_1m,113,tetragonal,-123.8188,-2.2137,-0.0188,3D,2.4088,True,0.0,,-0.0188,-0.0113
59363,F28Lu1Np3Zr4,2782ffbd57,LuZr4Np3F28,"['F', 'Zr', 'Lu', 'Np']",36,596.386,4.964,1,P1,1,triclinic,-276.2916,-4.0338,-0.0368,3D,inf,False,0.0,,-0.0368,-0.036
59386,Ba8Bi5Br1,2786d76d17,Ba8Bi5Br,"['Br', 'Ba', 'Bi']",14,620.6203,5.949,-4,I-4,82,tetragonal,-52.3009,-1.133,-0.0501,intercalated ion,0.6278,False,0.0,,-0.0501,-0.0148
59396,O12Pr5Pt1Sn1,2787fae0e3,Pr5SnPtO12,"['O', 'Sn', 'Pr', 'Pt']",19,295.0519,6.8117,2,C2,5,monoclinic,-150.9061,-3.0287,-0.0597,3D,0.0014,True,0.0,,-0.0597,-0.0574
59448,Br1F18Ir1Pd1,2791690a56,IrPdBrF18,"['F', 'Br', 'Pd', 'Ir']",21,341.4332,3.5042,1,P1,1,triclinic,-80.0734,-1.4291,-0.0835,0D,,True,0.0,,-0.0835,-0.0382
59462,Br12Si4Sm11Tb1,2794d9b4c1,TbSm11(SiBr3)4,"['Si', 'Br', 'Sm', 'Tb']",28,836.4401,5.7256,2,C2,5,monoclinic,-143.5185,-1.6298,-0.0869,3D,0.0051,True,0.0,,-0.0869,-0.0655
59536,Ca1Li11O48Pr12Ta1W7,27a1ec7486,Li11CaPr12TaW7O48,"['Li', 'O', 'Ca', 'Pr', 'Ta', 'W']",80,1023.5511,6.5593,1,P1,1,triclinic,-662.2974,-3.0228,-0.0286,intercalated ion,,True,0.0,,-0.0286,-0.0247
59648,Al6Ca2O14Pr2,27b6328cea,CaPrAl3O7,"['O', 'Al', 'Ca', 'Pr']",24,318.9961,3.893,2,P2_1,4,monoclinic,-190.4808,-3.5485,-0.0079,intercalated ion,4.2519,True,-0.0,,-0.0079,-0.0042
59720,B2Br12Lu1Tm7,27c211bd9a,Tm7Lu(BBr6)2,"['B', 'Br', 'Tm', 'Lu']",22,682.8387,5.6855,m,Pm,6,monoclinic,-108.6935,-1.8109,-0.0931,3D,0.0057,True,0.0,,-0.0931,-0.04
59865,Ce1F13K5Zr1,27de18b91a,K5CeZrF13,"['F', 'K', 'Zr', 'Ce']",20,371.7675,3.0096,m,Cm,8,monoclinic,-117.4685,-3.6293,-0.0383,intercalated ion,2.5555,False,0.0,,-0.0383,-0.0146
59874,F20Nb1Sb2V1,27dfdc1819,NbVSb2F20,"['F', 'V', 'Nb', 'Sb']",24,397.2939,3.2072,1,P1,1,triclinic,-133.8439,-2.8405,-0.004,1D,2.5305,True,-0.0,,-0.004,-0.0035
59903,Ba7Nb1O19Tc3,27e60f7f1c,Ba7NbTc3O19,"['O', 'Nb', 'Tc', 'Ba']",30,461.2412,5.9481,m,Cm,8,monoclinic,-230.715,-2.7363,-0.2103,intercalated ion,0.0037,True,0.0,,-0.2103,-0.2091
59910,Ir2K4O12Sr4,27e7d9f934,K2Sr2IrO6,"['O', 'K', 'Sr', 'Ir']",22,351.4409,5.1185,2,C2,5,monoclinic,-135.0052,-2.1251,-0.0819,intercalated ion,0.2986,True,0.0,,-0.0819,-0.0577
59948,B2Br34Cs7Hf9In1Zr3,27ecb5a882,Cs7Hf9Zr3In(BBr17)2,"['B', 'Br', 'Zr', 'In', 'Cs', 'Hf']",56,1951.8813,4.8182,1,P1,1,triclinic,-294.7553,-1.8118,-0.0382,intercalated ion,,True,-0.0,,-0.0382,-0.0295
60002,Al3Cl2Sn3Y10,27f49ff813,Y10Al3Sn3Cl2,"['Al', 'Cl', 'Y', 'Sn']",18,465.6719,4.9817,m,Pm,6,monoclinic,-107.9159,-0.9049,-0.0073,3D,0.0041,True,0.0,,-0.0073,-0.0058
60020,K5O32Rb35Tl8,27f865f8b9,K5Rb35Tl8O32,"['O', 'K', 'Rb', 'Tl']",80,1895.1661,4.6736,1,P1,1,triclinic,-324.3298,-1.3404,-0.0254,intercalated ion,,True,0.0,,-0.0254,-0.0254
60071,Br12La12Rh3Ru1,2801eecc7c,La12Ru(RhBr4)3,"['Br', 'Ru', 'Rh', 'La']",28,925.4963,5.4463,32,R32,155,trigonal,-157.1303,-1.6746,-0.0438,3D,inf,True,0.0,,-0.0438,-0.0436
60080,Bi6O18Ru2Sb1,28042cc9c2,Bi6Sb(RuO9)2,"['O', 'Ru', 'Sb', 'Bi']",27,395.3218,7.8371,3,P3,143,trigonal,-178.7066,-1.6158,-0.0318,3D,0.0148,True,0.0,,-0.0318,-0.0318
60125,Ca2Cl16Ga4,280cdf1f7f,Ca(GaCl4)2,"['Cl', 'Ca', 'Ga']",22,732.8535,2.0989,m,Pc,7,monoclinic,-88.1276,-1.9285,-0.0237,intercalated ion,4.2965,True,0.0,,-0.0237,-0.0235
60154,Bi3F28Pr1Re4,2811e01607,PrRe4Bi3F28,"['F', 'Pr', 'Re', 'Bi']",36,577.1119,5.8831,1,P1,1,triclinic,-218.1244,-2.7326,-0.0312,3D,1.607,True,0.0,,-0.0312,-0.0267