Unnamed: 0,Composition,MaterialId,Reduced Formula,Elements,NSites,Volume,Density,Point Group,Space Group,Space Group Number,Crystal System,Corrected Energy,Formation Energy Per Atom,Decomposition Energy Per Atom,Dimensionality Cheon,Bandgap,Is Train,Decomposition Energy Per Atom All,Decomposition Energy Per Atom Relative,Decomposition Energy Per Atom MP,Decomposition Energy Per Atom MP OQMD
67010,Hf3O2Pt6Ti7,2cb9134537,Hf3Ti7(Pt3O)2,"['O', 'Ti', 'Hf', 'Pt']",18,277.0489,12.4251,m,Pm,6,monoclinic,-156.9557,-1.4163,-0.0199,3D,0.0005,True,-0.0,,-0.0199,-0.0178
67012,Nb4O28Rb4Si8,2cb978474e,RbNbSi2O7,"['O', 'Si', 'Rb', 'Nb']",44,652.0883,3.5299,4mm,P4bm,100,tetragonal,-362.8214,-3.1034,-0.0045,intercalated ion,,True,0.0,,-0.0045,-0.0045
67039,Ca2La2O19Os6,2cbf7504b3,Ca2La2Os6O19,"['O', 'Ca', 'La', 'Os']",29,383.8705,7.8008,2,C2,5,monoclinic,-239.3247,-2.2092,-0.0253,intercalated ion,0.0032,False,0.0,,-0.0253,-0.0123
67041,Bi2La5O14Y1,2cbfbc7e66,La5Y(BiO7)2,"['O', 'Y', 'La', 'Bi']",22,345.1244,6.8581,1,P1,1,triclinic,-177.9411,-3.1701,-0.0997,3D,,False,0.0,,-0.0997,-0.064
67050,La5O19U4Y1,2cc09e1242,La5YU4O19,"['O', 'Y', 'La', 'U']",29,417.8785,8.1046,1,P1,1,triclinic,-284.474,-3.9362,-0.0131,3D,,True,0.0,,-0.0131,-0.0126
67116,Cl5I1Ti1Zr1,2ccd4d24d8,ZrTiICl5,"['Cl', 'Ti', 'Zr', 'I']",8,275.6113,2.6706,m,Cm,8,monoclinic,-43.088,-1.9848,-0.0067,1D,0.0003,False,0.0,,-0.0067,-0.0053
67169,Ba4K2O28Rb2Si8Y4,2cd6806e4b,KRbBa2Y2(Si2O7)2,"['O', 'Si', 'K', 'Rb', 'Y', 'Ba']",48,734.322,4.1308,2,P2_1,4,monoclinic,-381.786,-3.3774,-0.015,intercalated ion,,True,0.0,,-0.015,-0.015
67172,Ba4K4Nb4O16,2cd6ca21b7,KBaNbO4,"['O', 'K', 'Nb', 'Ba']",28,550.1228,4.0246,222,P2_12_12_1,19,orthorhombic,-215.5038,-2.9933,-0.1121,intercalated ion,4.197,True,0.0,,-0.1121,-0.0254
67203,Cd4Li12O48Sn18Zn2,2cda43c820,Li6ZnCd2(Sn3O8)3,"['Li', 'O', 'Zn', 'Cd', 'Sn']",84,1026.9413,5.7702,m,Cc,9,monoclinic,-515.2409,-2.1006,-0.011,intercalated ion,,True,0.0,,-0.011,-0.0095
67223,Al2Li2O24Sb8,2cdc778be1,LiAl(SbO3)4,"['Li', 'O', 'Al', 'Sb']",36,406.1534,5.8298,mm2,Pmn2_1,31,orthorhombic,-240.8364,-2.1596,-0.0043,intercalated ion,1.1116,True,0.0,,-0.0043,-0.001
67257,Eu3Lu4O24W4Y1,2ce0c6c123,Eu3YLu4(WO6)4,"['O', 'Y', 'Eu', 'Lu', 'W']",36,461.4854,8.5063,2,P2,3,monoclinic,-341.0566,-3.1957,-0.0537,3D,0.0002,True,0.0,,-0.0537,-0.0345
67273,Cl30Nb1Os5,2ce38f1e37,Nb(OsCl6)5,"['Cl', 'Nb', 'Os']",36,1151.9614,3.0381,1,P1,1,triclinic,-159.3756,-1.0467,-0.1483,0D,0.4832,True,0.0,,-0.1483,-0.1466
67277,Ba8Ir1O20W3,2ce4a6c15e,Ba8IrW3O20,"['O', 'Ba', 'W', 'Ir']",32,513.9625,6.9862,m,Pm,6,monoclinic,-248.8566,-2.7135,-0.0335,intercalated ion,0.3547,True,-0.0,,-0.0335,-0.0244
67302,Au3Br12La12Tc1,2ce7d952fa,La12Tc(AuBr4)3,"['Br', 'Tc', 'La', 'Au']",28,975.7186,5.641,32,R32,155,trigonal,-144.1938,-1.612,-0.035,3D,0.0112,True,0.0,,-0.035,-0.033
67329,O24P6Pa3Sb1,2ceb9ee8a2,Pa3Sb(PO4)6,"['O', 'P', 'Sb', 'Pa']",34,598.1974,3.8438,3,R3,146,trigonal,-289.7789,-3.114,-0.322,3D,1.6816,True,0.0,,-0.322,-0.322
67338,Al8Ca8O36Sn3Zr5,2cece2d68d,Ca8Zr5Al8(SnO12)3,"['O', 'Al', 'Ca', 'Zr', 'Sn']",60,776.927,4.1137,1,P1,1,triclinic,-481.0096,-3.3684,-0.0083,intercalated ion,,True,0.0,,-0.0083,-0.0083
67348,Eu1Ga4O14Si2Sr3,2cee93b06c,Sr3EuGa4(SiO7)2,"['O', 'Si', 'Ga', 'Sr', 'Eu']",24,352.1605,4.5921,1,P1,1,triclinic,-179.2245,-2.9846,-0.0231,intercalated ion,0.0225,True,0.0,,-0.0231,-0.0219
67370,O14P4Sb1V1,2cf2acf5a3,VSb(P2O7)2,"['O', 'P', 'V', 'Sb']",20,272.3804,3.1737,1,P1,1,triclinic,-154.6733,-2.5268,-0.0115,3D,1.7592,True,0.0,,-0.0115,-0.009
67475,Gd2Ho3O14Ta2Y1,2d034d81c3,Gd2YHo3Ta2O14,"['O', 'Y', 'Gd', 'Ho', 'Ta']",22,300.238,8.2081,1,P1,1,triclinic,-226.24,-3.8585,-0.0095,3D,3.18,True,-0.0,,-0.0095,-0.0094
67477,C4Hg3O12Pb1,2d036913ec,Hg3Pb(CO3)4,"['C', 'O', 'Hg', 'Pb']",20,294.1335,5.9222,1,P1,1,triclinic,-130.1201,-1.4607,-0.0197,3D,2.015,True,0.0,,-0.0197,-0.0013
67503,Ca8O24Tl2V6,2d08306455,Ca4TlV3O12,"['O', 'Ca', 'V', 'Tl']",40,596.6435,3.9493,m,Cc,9,monoclinic,-307.6324,-2.8402,-0.0071,intercalated ion,,True,0.0,,-0.0071,-0.0054
67506,In6O18Sm5Tb1,2d08ed1bd3,TbSm5In6O18,"['O', 'In', 'Sm', 'Tb']",30,449.6971,6.9702,3m,P31m,157,trigonal,-222.0602,-2.942,-0.0017,3D,2.0583,True,0.0,,-0.0017,0.0
67610,Br2Pd5Sb8,2d1b501325,Sb8Pd5Br2,"['Br', 'Pd', 'Sb']",15,381.9724,7.2425,m,Cm,8,monoclinic,-71.3201,-0.6077,-0.1073,3D,,True,0.0,,-0.1073,-0.0119
67634,La4O4P4Rh1Ru3,2d1f232c86,La4P4Ru3RhO4,"['O', 'P', 'Ru', 'Rh', 'La']",16,267.5547,7.135,-42m,P-4m2,115,tetragonal,-132.4387,-2.2539,-0.0888,3D,,True,0.0,,-0.0888,-0.0025
67717,Ca1O18Pa5Sr4,2d2b445aed,Sr4CaPa5O18,"['O', 'Ca', 'Sr', 'Pa']",28,441.0149,6.9045,1,P1,1,triclinic,-253.1474,-3.8481,-0.5224,intercalated ion,,True,0.0,,-0.5224,-0.2616
67764,Br12La1P4Pr11,2d31fa7f9c,LaPr11(PBr3)4,"['P', 'Br', 'La', 'Pr']",28,860.4083,5.3491,2,C2,5,monoclinic,-152.1756,-1.9055,-0.0004,3D,0.0031,True,0.0,,-0.0004,-0.0004
67776,Ba4Ir1O16Te3,2d35395a44,Ba4Te3IrO16,"['O', 'Te', 'Ba', 'Ir']",24,427.5461,5.361,2,P2,3,monoclinic,-157.2173,-2.1711,-0.0268,intercalated ion,0.2434,True,0.0,,-0.0268,-0.0268
67826,F8Na2O4Re2,2d3e6db6c1,NaRe(OF2)2,"['O', 'F', 'Na', 'Re']",16,258.8398,4.0697,-42m,P-42_1m,113,tetragonal,-104.3562,-2.6087,-0.0733,intercalated ion,,True,0.0,,-0.0733,-0.0729
67864,F26Np6Pb2,2d448a706c,Np3PbF13,"['F', 'Pb', 'Np']",34,503.0276,7.6927,mm2,Pmc2_1,26,orthorhombic,-258.826,-3.6475,-0.0165,3D,,True,0.0,,-0.0165,-0.0161
67913,F28Hf3Ho4Nb1,2d4d0da125,Ho4Hf3NbF28,"['F', 'Nb', 'Ho', 'Hf']",36,551.2252,5.4828,1,P1,1,triclinic,-262.864,-4.1956,-0.0031,3D,0.2859,True,0.0,,-0.0031,-0.003
67938,Ba4Gd5O16Y3,2d50b761b7,Ba4Gd5Y3O16,"['O', 'Y', 'Ba', 'Gd']",28,460.0455,6.7074,m,Pm,6,monoclinic,-278.3011,-3.6313,-0.006,3D,,True,0.0,,-0.006,-0.0005
67965,As1Ce2O2P1Rh1Tc1,2d55e02515,Ce2TcAsPRhO2,"['O', 'P', 'As', 'Tc', 'Rh', 'Ce']",8,132.5711,7.7538,mm2,Pmm2,25,orthorhombic,-66.7097,-2.1438,-0.0683,3D,,True,0.0,,-0.0683,-0.0234
67968,Cl12Tc12Te12,2d56bef6d6,TcTeCl,"['Cl', 'Tc', 'Te']",36,1132.9796,4.5913,222,C222_1,20,orthorhombic,-214.986,-0.8543,-0.0684,2D,0.8635,True,0.0,,-0.0684,-0.0525
67977,K2O24Sn10V2,2d57d9b294,KVSn5O12,"['O', 'K', 'V', 'Sn']",38,540.703,5.378,1,P1,1,triclinic,-261.7184,-2.1706,-0.012,3D,,True,0.0,,-0.012,-0.0116
67992,Au2Br12La12Os2,2d5a889212,La6OsAuBr6,"['Br', 'La', 'Os', 'Au']",28,950.0484,5.9429,222,F222,22,orthorhombic,-153.2623,-1.6209,-0.0669,3D,inf,False,0.0,,-0.0669,-0.0655
68035,F28Ho3Tc4Tm1,2d629dc2d2,Ho3TmTc4F28,"['F', 'Tc', 'Ho', 'Tm']",36,524.1702,5.0297,1,P1,1,triclinic,-234.5322,-3.3707,-0.1326,3D,1.6062,True,0.0,,-0.1326,-0.0905
68072,Br12Ca1Rh1Sm1Tb5,2d67d2fdbd,CaTb5SmRhBr12,"['Ca', 'Br', 'Rh', 'Sm', 'Tb']",20,680.2037,4.9968,1,P1,1,triclinic,-97.1412,-2.0119,-0.008,,0.0059,,0.0,,-0.008,-0.005
68101,Cd1O8Pb3Rb2,2d6ed933be,Rb2CdPb3O8,"['O', 'Rb', 'Cd', 'Pb']",14,261.5747,6.5574,3m,R3m,160,trigonal,-74.1235,-1.4656,-0.026,intercalated ion,,True,0.0,,-0.026,-0.0258
68163,Cl2In2Rb12Te8,2d7a858234,Rb6InTe4Cl,"['Cl', 'Rb', 'In', 'Te']",24,1036.892,3.7586,6mm,P6_3mc,186,hexagonal,-77.4793,-1.3069,-0.0603,intercalated ion,1.866,False,0.0,,-0.0603,-0.0596
68216,Gd1O18Sc1V6,2d82dabe1b,GdScV6O18,"['O', 'Sc', 'V', 'Gd']",26,466.6636,2.8319,1,P1,1,triclinic,-233.8224,-2.6856,-0.0182,3D,,True,0.0,,-0.0182,-0.0148
68281,F20Gd1Rb8Y3,2d8bf262c3,Rb8GdY3F20,"['F', 'Rb', 'Y', 'Gd']",32,601.7617,4.1052,m,Pm,6,monoclinic,-198.7748,-3.7258,-0.0491,intercalated ion,4.6145,True,0.0,,-0.0491,-0.0091
68292,As6Ba10O25,2d8e3b668b,Ba10As6O25,"['O', 'As', 'Ba']",41,775.7015,4.7583,3,P3,143,trigonal,-281.5636,-2.7005,-0.0015,intercalated ion,,True,0.0,,-0.0015,-0.0015
68301,Be1O4Rb1V1,2d9009a74b,RbBeVO4,"['Be', 'O', 'V', 'Rb']",7,115.3258,3.0154,m,Cm,8,monoclinic,-52.0114,-2.6308,-0.0226,intercalated ion,3.3219,True,0.0,,-0.0226,-0.0226
68380,Br6Os1Tl1,2d9c260c5a,TlOsBr6,"['Br', 'Os', 'Tl']",8,294.8422,4.9225,2,C2,5,monoclinic,-29.47,-0.7574,-0.0421,2D,,True,0.0,,-0.0421,-0.0419
68432,F14Tc1Tm2Zr1,2da6428476,Tm2ZrTcF14,"['F', 'Zr', 'Tc', 'Tm']",18,270.5533,4.8675,1,P1,1,triclinic,-123.0951,-3.8041,-0.1221,3D,1.6739,True,0.0,,-0.1221,-0.0382
68445,Ba8O14W2,2da7ed3df9,Ba4WO7,"['O', 'Ba', 'W']",24,431.2425,6.5086,2,P2_1,4,monoclinic,-179.541,-2.8751,-0.0163,intercalated ion,,True,0.0,,-0.0163,-0.0032
68519,C4Eu3O12Pb1,2db3b22baa,Eu3Pb(CO3)4,"['C', 'O', 'Eu', 'Pb']",20,271.9807,5.5139,m,Pm,6,monoclinic,-179.3296,-2.4229,-0.0034,intercalated ion,0.0069,True,0.0,,-0.0034,-0.0005
68536,Ir1La1O12Pr5,2db6aa199d,LaPr5IrO12,"['O', 'La', 'Pr', 'Ir']",19,302.8349,6.7316,1,P1,1,triclinic,-158.8778,-3.2539,-0.0374,3D,0.5393,True,-0.0,,-0.0374,-0.0351
68569,Br2C2Th1Y3,2dbceb597d,Y3Th(CBr)2,"['C', 'Br', 'Y', 'Th']",8,173.0861,6.5485,3m,P3m1,156,trigonal,-57.1677,-1.0784,-0.0642,3D,0.006,False,0.0,,-0.0643,-0.013
68571,F28Rh3Ru1Tb4,2dbd00514c,Tb4RuRh3F28,"['F', 'Ru', 'Rh', 'Tb']",36,528.4333,4.9569,1,P1,1,triclinic,-212.6729,-3.0346,-0.0238,3D,0.0025,False,0.0,,-0.0238,-0.0224
68581,Np4O24Tm3Y5,2dbe0c1a2c,Y5Tm3Np4O24,"['O', 'Y', 'Tm', 'Np']",36,490.8245,7.7248,1,P1,1,triclinic,-351.4823,-3.755,-0.1819,3D,0.4817,True,0.0,,-0.1819,-0.1575
68609,Ba4F4S7Sb4Se1,2dc2d6ebc7,Ba4Sb4SeS7F4,"['F', 'S', 'Se', 'Sb', 'Ba']",20,540.4602,4.3498,1,P1,1,triclinic,-105.1299,-2.0421,-0.0126,intercalated ion,1.6664,True,0.0,,-0.0126,-0.0126
68619,Cl26P4Ta2,2dc5a5864c,TaP2Cl13,"['P', 'Cl', 'Ta']",32,1101.3887,2.1222,mm2,Cmc2_1,36,orthorhombic,-139.2895,-1.4331,-0.0034,0D,2.3788,False,0.0,,-0.0034,-0.0034
68725,Li12O48Sm10Tb2W8,2dd562d60f,Li6TbSm5(WO6)4,"['Li', 'O', 'Sm', 'Tb', 'W']",80,974.2712,7.062,2,C2,5,monoclinic,-659.9346,-2.9926,-0.0176,intercalated ion,,True,0.0,,-0.0176,-0.0134
68751,Ir5O19Pd1Sr4,2dd9eba1bb,Sr4Ir5PdO19,"['O', 'Sr', 'Pd', 'Ir']",29,412.536,6.9313,2,C2,5,monoclinic,-202.8986,-1.8192,-0.1717,intercalated ion,0.0007,False,0.0,,-0.1717,-0.1352
68764,Ba2Cu1Ir6O18,2ddaa6f9f0,Ba2Cu(IrO3)6,"['O', 'Cu', 'Ba', 'Ir']",27,341.194,8.6605,1,P1,1,triclinic,-192.109,-1.5584,-0.0586,intercalated ion,0.0012,False,0.0,,-0.0586,-0.0522
68779,Ca1Eu3O20Ti8,2dde10f43b,CaEu3Ti8O20,"['O', 'Ca', 'Ti', 'Eu']",32,397.8571,5.0038,m,Pm,6,monoclinic,-309.1203,-3.5661,-0.0265,intercalated ion,,True,0.0,,-0.0265,-0.0181
68784,F9O2Pd2,2ddea57a33,Pd2O2F9,"['O', 'F', 'Pd']",13,189.5909,3.642,1,P1,1,triclinic,-54.1359,-1.2828,-0.0724,intercalated molecule,,True,-0.0,,-0.0724,-0.0678
68791,Cs2F21Na1Sc6,2de0153814,Cs2NaSc6F21,"['F', 'Na', 'Sc', 'Cs']",30,555.6481,2.8615,2,C2,5,monoclinic,-202.9746,-4.0575,-0.003,intercalated ion,6.2329,True,0.0,,-0.003,-0.0029
68800,O2P1Si1Ti6,2de1f58f39,Ti6SiPO2,"['O', 'Si', 'P', 'Ti']",10,129.5991,4.8466,mm2,Amm2,38,orthorhombic,-85.4024,-1.7295,-0.0386,3D,0.0025,True,0.0,,-0.0386,-0.0344
68833,Cl1F6N3,2de6e58f1a,N3ClF6,"['N', 'F', 'Cl']",10,172.7495,1.8404,1,P1,1,triclinic,-45.6704,-0.7343,-0.1045,0D,2.6898,False,-0.0,,-0.1045,-0.0265
68837,Al3Cl2Ga5La6,2de7c93f14,La6Al3Ga5Cl2,"['Al', 'Cl', 'Ga', 'La']",16,392.3485,5.6455,1,P1,1,triclinic,-75.786,-1.006,-0.0086,3D,0.0023,True,0.0,,-0.0086,-0.0035
68872,Br6Mg1O18Sn1,2df111c0f8,MgSn(BrO3)6,"['O', 'Mg', 'Br', 'Sn']",26,414.7653,3.645,3,P3,143,trigonal,-122.6694,-0.7028,-0.0536,3D,,True,-0.0,,-0.0536,-0.0514
68895,Cl6Na1V2,2df5682718,Na(VCl3)2,"['Na', 'Cl', 'V']",9,243.6248,2.301,1,P1,1,triclinic,-46.4601,-1.7643,-0.0193,intercalated ion,0.0125,True,0.0,,-0.0193,-0.0134
68902,Ca1O8Ti3Tm1,2df60710ac,CaTmTi3O8,"['O', 'Ca', 'Ti', 'Tm']",13,160.4702,4.9733,m,Cm,8,monoclinic,-116.8463,-3.6227,-0.0038,intercalated ion,0.0064,True,0.0,,-0.0038,-0.0017
68938,Be2Br2Pr4Si2,2dfc084cc3,Pr2BeSiBr,"['Be', 'Si', 'Br', 'Pr']",10,230.5199,5.7457,6mm,P6_3mc,186,hexagonal,-51.5614,-1.0834,-0.1351,intercalated ion,,True,0.0,,-0.1351,-0.1088
68973,Br12La12Pt1Rh2Ru1,2e0519c3ba,La12RuPt(RhBr6)2,"['Br', 'Ru', 'Rh', 'La', 'Pt']",28,929.457,5.5878,2,C2,5,monoclinic,-156.6901,-1.705,-0.0457,3D,,True,0.0,,-0.0457,-0.0455
68984,Ba3Lu1O12Re2Tl1,2e074e3f6a,Ba3LuTl(ReO6)2,"['O', 'Ba', 'Lu', 'Re', 'Tl']",19,281.9998,7.9832,3m,R3m,160,trigonal,-149.0314,-2.7435,-0.0138,intercalated ion,1.3494,True,0.0,,-0.0138,-0.0138
69017,C4F2La3Pr1,2e0cb07580,La3Pr(C2F)2,"['C', 'F', 'La', 'Pr']",10,193.8072,5.5149,1,P1,1,triclinic,-73.7869,-1.3468,-0.0398,3D,0.0023,True,0.0,,-0.0398,-0.0308
69033,B4Gd1O16Sm3Sr4,2e10b54d0a,Sr4Sm3Gd(BO4)4,"['B', 'O', 'Sr', 'Sm', 'Gd']",28,409.3725,5.103,m,Pm,6,monoclinic,-237.742,-3.4595,-0.0059,intercalated ion,3.5735,True,0.0,,-0.0059,-0.0039
69041,Br2Ir1La2P1,2e1200c43d,La2PIrBr2,"['P', 'Br', 'La', 'Ir']",6,176.1466,6.2295,3m,P3m1,156,trigonal,-38.2851,-1.8146,-0.0485,2D,0.174,True,0.0,,-0.0485,-0.0387
69045,Ir3O18Pb1Sm5,2e131286bb,Sm5Ir3PbO18,"['O', 'Sm', 'Ir', 'Pb']",27,394.243,7.6811,2,C2,5,monoclinic,-208.5819,-2.4332,-0.0263,3D,,True,0.0,,-0.0263,-0.012
69046,La3O12Pr2Th1U1,2e132be8a3,La3Pr2ThUO12,"['O', 'La', 'Pr', 'Th', 'U']",19,314.5178,7.1834,1,P1,1,triclinic,-177.8626,-3.9691,-0.0299,3D,0.878,True,0.0,,-0.0299,-0.0299
69101,Br6Ho1N2Tb3,2e1c5a028c,Tb3Ho(Br3N)2,"['N', 'Br', 'Tb', 'Ho']",12,356.9426,5.346,m,Cm,8,monoclinic,-71.2219,-2.1868,-0.0582,2D,1.8528,True,0.0,,-0.0582,0.0
69114,Ir4O13Pb2Sr2,2e1eef51a1,Sr2Ir4Pb2O13,"['O', 'Sr', 'Ir', 'Pb']",21,282.8986,9.1949,mm2,Imm2,44,orthorhombic,-147.0691,-1.7423,-0.0262,intercalated ion,0.0039,True,-0.0,,-0.0262,-0.0172
69124,As4Ca3Cd1O16Sr2,2e20b539ab,Sr2Ca3Cd(AsO4)4,"['O', 'Ca', 'As', 'Sr', 'Cd']",26,394.2896,4.058,1,P1,1,triclinic,-174.0957,-2.5374,-0.007,2D,3.0377,False,0.0,,-0.007,-0.0058
69204,F28Ho4Re1Sn3,2e2d63e14c,Ho4ReSn3F28,"['F', 'Sn', 'Ho', 'Re']",36,545.4116,5.2793,1,P1,1,triclinic,-222.5353,-3.5059,-0.051,3D,,True,0.0,,-0.051,-0.0489
69224,Br2Cs12In2Se8,2e305dca1a,Cs6InSe4Br,"['Se', 'Br', 'In', 'Cs']",24,1015.8608,4.2761,6mm,P6_3mc,186,hexagonal,-80.9954,-1.3961,-0.0599,intercalated ion,2.0173,True,-0.0,,-0.0599,-0.0598
69283,F24Ir1Pu1Te2,2e3908f34c,PuTe2IrF24,"['F', 'Te', 'Ir', 'Pu']",28,482.2596,3.9507,m,Pm,6,monoclinic,-144.2205,-2.4626,-0.1328,0D,,True,0.0,,-0.1328,-0.1317
69305,Li5O5U1,2e3da362c0,Li5UO5,"['Li', 'O', 'U']",11,124.8583,4.6911,m,Cm,8,monoclinic,-75.5795,-2.7276,-0.0205,intercalated ion,0.6607,True,0.0,,-0.0205,-0.0079
69315,B2Br12Ge2Pr12,2e3fe0a5fd,Pr6GeBBr6,"['B', 'Ge', 'Br', 'Pr']",28,864.7356,5.4088,222,F222,22,orthorhombic,-144.4238,-1.6002,-0.0541,3D,,True,0.0,,-0.0541,-0.0401
69321,Hf1O24P6W3,2e40b23c89,HfP6(WO8)3,"['O', 'P', 'Hf', 'W']",34,506.0793,4.265,1,P1,1,triclinic,-291.922,-2.7018,-0.0046,3D,2.2387,True,0.0,,-0.0046,-0.0012
69327,Na2Nb8O16Pr2,2e41baf5e9,NaPrNb4O8,"['O', 'Na', 'Nb', 'Pr']",28,370.1516,5.9532,mm2,Pma2,28,orthorhombic,-253.512,-2.9042,-0.0258,intercalated ion,,True,0.0,,-0.0258,-0.0257
69329,O12Pr5U2,2e42360087,Pr5U2O12,"['O', 'Pr', 'U']",19,307.0822,7.4222,1,P1,1,triclinic,-178.3539,-3.8153,-0.0807,3D,0.1584,False,0.0,,-0.0807,-0.0531
69361,La3O12Pr3Te1,2e469e4935,La3Pr3TeO12,"['O', 'Te', 'La', 'Pr']",19,307.0909,6.2673,1,P1,1,triclinic,-156.9168,-3.4341,-0.0247,3D,2.6181,True,0.0,,-0.0247,-0.0247
69367,Br18C1Cs4Hf2Zr4,2e475aa58c,Cs4Hf2Zr4CBr18,"['C', 'Br', 'Zr', 'Cs', 'Hf']",29,1087.4816,4.1286,1,P1,1,triclinic,-151.0362,-1.8848,-0.051,0D,1.1571,True,0.0,,-0.051,-0.0181
69379,Ac1Br6La9Pr2Si14,2e4a192a52,AcLa9Pr2(Si7Br3)2,"['Si', 'Br', 'La', 'Pr', 'Ac']",32,841.3626,5.1938,mm2,Pmm2,25,orthorhombic,-181.5941,-1.1785,-0.0249,3D,,True,0.0,,-0.0249,-0.0228
69400,Ba3Ho1Lu3O9,2e4cfb9219,Ba3HoLu3O9,"['O', 'Ba', 'Ho', 'Lu']",16,265.8718,7.7809,3,R3,146,trigonal,-126.714,-3.6425,-0.008,intercalated ion,3.3202,True,0.0,,-0.008,-0.003
69403,Au4Br5F3,2e4d6def37,Au4Br5F3,"['F', 'Br', 'Au']",12,349.5459,5.9115,1,P1,1,triclinic,-36.5436,-0.7941,-0.0322,0D,,True,0.0,,-0.0322,-0.032
69466,Bi6Gd2O20Se4,2e577d73fb,GdBi3(SeO5)2,"['O', 'Se', 'Gd', 'Bi']",32,531.0724,6.892,mm2,Aem2,39,orthorhombic,-226.3986,-1.9351,-0.0214,2D,,True,0.0,,-0.0214,-0.0058
69493,Au3Br12La12Rh1,2e5c3b35c7,La12Rh(AuBr4)3,"['Br', 'Rh', 'La', 'Au']",28,967.491,5.6974,32,R32,155,trigonal,-142.4177,-1.6556,-0.0151,3D,0.0017,False,0.0,,-0.0151,-0.0138
69533,Br1Cs2Ga1H8,2e63581d46,Cs2GaH8Br,"['H', 'Ga', 'Br', 'Cs']",12,243.6663,2.8861,-42m,P-4m2,115,tetragonal,-40.0761,-0.5399,-0.0401,intercalated ion,4.589,True,0.0,,-0.0401,-0.039
69555,Eu2O22Ta5W3,2e65da0089,Eu2Ta5W3O22,"['O', 'Eu', 'Ta', 'W']",32,429.57,8.1648,2,C2,5,monoclinic,-324.645,-3.0326,-0.0164,3D,1.6585,True,0.0,,-0.0164,-0.0081
69556,Cs1F5,2e65e61e4b,CsF5,"['F', 'Cs']",6,115.7378,3.2697,1,P1,1,triclinic,-18.7576,-1.3841,-0.4366,intercalated ion,1.9424,True,0.0,,-0.4366,-0.2272
69570,Cl1Pr20Si15,2e674be91b,Pr20Si15Cl,"['Si', 'Cl', 'Pr']",36,965.2964,5.6336,1,P1,1,triclinic,-204.6434,-0.7166,-0.0158,3D,0.0007,True,0.0,,-0.0158,-0.0127
69580,O24Pm4Ta3Tc3,2e68b4b38f,Pm4Ta3(TcO8)3,"['O', 'Tc', 'Pm', 'Ta']",34,519.4626,5.7566,1,P1,1,triclinic,-303.8165,-2.9238,-0.0503,3D,1.0476,True,0.0,,-0.0503,-0.0503
69610,K4Nb4O16Sr4,2e6bd86a9d,KSrNbO4,"['O', 'K', 'Sr', 'Nb']",28,491.7184,3.8312,222,P2_12_12_1,19,orthorhombic,-214.8278,-3.002,-0.082,intercalated ion,4.2531,False,0.0,,-0.082,-0.0068
69644,Ho1Ir4O16Tm3,2e7214b8f0,HoTm3(IrO4)4,"['O', 'Ho', 'Tm', 'Ir']",24,292.6413,9.627,1,P1,1,triclinic,-190.0744,-2.3976,-0.0552,3D,0.0019,True,0.0,,-0.0552,-0.0307
69686,Cs12La4O32P8,2e77dfd614,Cs3La(PO4)2,"['O', 'P', 'Cs', 'La']",56,1117.5968,4.3241,2,P2_1,4,monoclinic,-396.64,-2.9377,-0.0236,intercalated ion,,True,-0.0,,-0.0236,-0.0236
69692,Ce2F14Ir1Sc1,2e78d759eb,Ce2ScIrF14,"['F', 'Sc', 'Ce', 'Ir']",18,282.7537,4.6006,1,P1,1,triclinic,-118.5086,-3.595,-0.0263,3D,0.4702,True,0.0,,-0.0263,-0.0263
69717,Al5K17O16,2e7d0a3301,K17Al5O16,"['O', 'Al', 'K']",38,692.511,2.5311,m,Cm,8,monoclinic,-200.2758,-2.1975,-0.0113,intercalated ion,2.5575,True,0.0,,-0.0113,-0.0113
69725,F12H7Ru1,2e7eef9394,H7RuF12,"['H', 'F', 'Ru']",20,239.9489,2.326,2,C2,5,monoclinic,-93.2291,-1.8634,-0.0707,0D,,True,0.0,,-0.0707,-0.054
69726,F28Np1Tb3Zr4,2e7f1acf02,Tb3Zr4NpF28,"['F', 'Zr', 'Tb', 'Np']",36,585.9573,4.5643,1,P1,1,triclinic,-264.5581,-4.1665,-0.0125,3D,0.1949,True,0.0,,-0.0125,-0.0109
69742,Bi6Ho1Lu1O14,2e82a5af16,HoLu(Bi3O7)2,"['O', 'Ho', 'Lu', 'Bi']",22,334.3308,9.0284,1,P1,1,triclinic,-148.8159,-2.141,-0.0306,3D,1.1606,True,0.0,,-0.0306,-0.0224
69807,Al2Br2I12Se2,2e8e8e3914,AlSeI6Br,"['Al', 'Se', 'Br', 'I']",18,884.8699,3.5553,1,P1,1,triclinic,-49.1799,-0.7297,-0.1599,0D,1.5922,True,0.0,,-0.1599,-0.0772
69922,Cl8Ru2S32,2ea0401f12,Ru(S4Cl)4,"['S', 'Cl', 'Ru']",42,1627.2521,1.5428,mm2,Fdd2,43,orthorhombic,-189.7627,-0.5728,-0.2657,0D,,True,0.0,,-0.2657,-0.2342
69979,Bi7Eu1O14,2ea8de98e1,Eu(BiO2)7,"['O', 'Eu', 'Bi']",22,344.2141,8.8707,1,P1,1,triclinic,-145.5615,-1.7622,-0.0253,3D,0.0006,False,0.0,,-0.0253,-0.0141
70043,Bi1Ir1Na2O6,2eb31e25cd,Na2BiIrO6,"['O', 'Na', 'Ir', 'Bi']",10,141.9647,6.3534,3,R3,146,trigonal,-60.7117,-1.565,-0.0345,intercalated ion,0.2168,True,0.0,,-0.0345,-0.0309
70044,Bi10O24Ru1Se2,2eb31fa25b,Bi10Ru(SeO12)2,"['O', 'Se', 'Ru', 'Bi']",37,593.3091,7.6484,1,P1,1,triclinic,-231.6227,-1.5596,-0.0257,3D,0.4752,True,0.0,,-0.0257,-0.0257
70067,Ce2F28Lu2Ru4,2eb7a77992,CeLuRu2F14,"['F', 'Ru', 'Ce', 'Lu']",36,541.0948,4.8071,2,P2_1,4,monoclinic,-224.0035,-3.1243,-0.0355,3D,,False,0.0,,-0.0355,-0.0207
70161,La5Lu3O3Pr2Si8,2ec88fc01a,La5Pr2Lu3Si8O3,"['O', 'Si', 'La', 'Pr', 'Lu']",21,445.249,6.6158,mm2,Amm2,38,orthorhombic,-138.637,-1.5517,-0.0222,3D,0.0081,True,0.0,,-0.0222,-0.0216
70167,As1Ga3O14Si2Sr3,2ec994e421,Sr3Ga3Si2AsO14,"['O', 'Si', 'Ga', 'As', 'Sr']",23,302.3273,4.5429,32,P321,150,trigonal,-164.6899,-2.859,-0.003,intercalated ion,3.3311,True,0.0,,-0.003,-0.003
70286,F24Np1Pd2Te1,2edf4c36a1,NpTePd2F24,"['F', 'Pd', 'Te', 'Np']",28,540.2363,3.1764,m,Pm,6,monoclinic,-130.564,-2.0799,-0.0803,0D,0.0009,True,0.0,,-0.0803,-0.0141
70288,Gd1O13Pb4Sb3,2edfa7d34c,GdSb3Pb4O13,"['O', 'Sb', 'Gd', 'Pb']",21,321.5606,8.0523,3m,R3m,160,trigonal,-148.9215,-2.0612,-0.0144,3D,,False,0.0,,-0.0144,-0.0129
70297,As5Br1Sr8,2ee18af355,Sr8As5Br,"['As', 'Br', 'Sr']",14,439.0625,4.37,-4,I-4,82,tetragonal,-56.6617,-1.3009,-0.0586,intercalated ion,1.1398,True,0.0,,-0.0586,-0.0248