Unnamed: 0,Composition,MaterialId,Reduced Formula,Elements,NSites,Volume,Density,Point Group,Space Group,Space Group Number,Crystal System,Corrected Energy,Formation Energy Per Atom,Decomposition Energy Per Atom,Dimensionality Cheon,Bandgap,Is Train,Decomposition Energy Per Atom All,Decomposition Energy Per Atom Relative,Decomposition Energy Per Atom MP,Decomposition Energy Per Atom MP OQMD
73438,Ge1O16Pd3Zn8,30fc0ed428,Zn8GePd3O16,"['O', 'Zn', 'Ge', 'Pd']",28,317.5073,6.1251,2,P2,3,monoclinic,-152.1638,-1.527,-0.0327,3D,1.2805,True,0.0,,-0.0327,-0.0103
73451,Cl16Li1Rb3,30fdfbb5d1,Rb3LiCl16,"['Li', 'Cl', 'Rb']",20,659.1477,2.0924,1,P1,1,triclinic,-59.8663,-1.272,-0.3848,intercalated ion,,True,0.0,,-0.3848,-0.0426
73468,Ce2F14Hf1Zr1,3101239836,Ce2HfZrF14,"['F', 'Zr', 'Ce', 'Hf']",18,315.8,4.2903,1,P1,1,triclinic,-133.1966,-4.2258,-0.0031,3D,0.1833,True,0.0,,-0.0031,-0.0008
73493,Cl2Ho5Pb6Sm5,3105a0d165,Sm5Ho5(Pb3Cl)2,"['Cl', 'Sm', 'Ho', 'Pb']",18,502.0648,9.5603,mm2,Amm2,38,orthorhombic,-88.5336,-0.892,-0.0341,3D,,True,0.0,,-0.0341,-0.0228
73504,Cl18In4Nb2Ta4,3107d6fb84,Ta2NbIn2Cl9,"['Cl', 'Nb', 'In', 'Ta']",28,765.6898,4.3526,2,C2,5,monoclinic,-155.1731,-1.545,-0.0033,0D,1.1154,True,0.0,,-0.0033,-0.0011
73512,Au4O12Pr3Y1,310898b85f,Pr3Y(AuO3)4,"['O', 'Y', 'Pr', 'Au']",20,287.9677,8.6005,m,Pm,6,monoclinic,-137.8813,-2.2301,-0.1035,3D,,True,0.0,,-0.1035,-0.0186
73523,Br4Cl4Ga8O20Sr12,3109a7a464,Sr3Ga2BrClO5,"['O', 'Cl', 'Ga', 'Br', 'Sr']",48,920.9951,4.3103,2,P2_1,4,monoclinic,-290.2299,-2.7673,-0.0202,intercalated ion,,True,0.0,,-0.0202,-0.0033
73525,Ca3La1O19Os6,310a33d3cb,Ca3LaOs6O19,"['O', 'Ca', 'La', 'Os']",29,382.3415,7.4028,3,R3,146,trigonal,-234.4137,-2.1409,-0.0299,intercalated ion,0.0012,True,0.0,,-0.0299,-0.0105
73603,La1Lu6O24Pr1W4,31176fa737,LaPrLu6(WO6)4,"['O', 'La', 'Pr', 'Lu', 'W']",36,460.0876,8.8387,2,P2,3,monoclinic,-327.2798,-3.3293,-0.0071,3D,,True,0.0,,-0.0071,-0.0071
73697,Cs1O19P5Ru3,3127edadf2,CsP5Ru3O19,"['O', 'P', 'Ru', 'Cs']",28,417.9531,3.5558,m,Cm,8,monoclinic,-211.9348,-2.2192,-0.0423,intercalated ion,0.0001,True,0.0,,-0.0423,-0.0423
73745,Cl7I1Ti3,31309282d9,Ti3ICl7,"['Cl', 'Ti', 'I']",11,298.7385,2.8831,3m,P3m1,156,trigonal,-59.1981,-1.9134,-0.021,2D,0.4768,True,0.0,,-0.021,-0.0023
73753,Ca2La4O12Os1,31319206e7,Ca2La4OsO12,"['O', 'Ca', 'La', 'Os']",19,306.294,5.519,1,P1,1,triclinic,-154.4431,-3.1624,-0.0245,intercalated ion,0.6891,True,0.0,,-0.0245,-0.0243
73767,Cu2Ho1O8Pd2Y1,31339e483d,YHoCu2(PdO4)2,"['O', 'Cu', 'Y', 'Pd', 'Ho']",14,163.4055,7.3346,2,C2,5,monoclinic,-97.81,-2.0442,-0.0084,3D,0.008,True,0.0,,-0.0084,-0.0084
73805,Cl10Hg8S4Sm2,31389f3c3a,SmHg4S2Cl5,"['S', 'Cl', 'Sm', 'Hg']",24,741.8321,5.3459,2,P2_1,4,monoclinic,-79.1241,-1.3428,-0.0437,3D,2.4959,True,0.0,,-0.0437,-0.0252
73820,Be1Br2Ho2Si1,313b2c9394,Ho2BeSiBr2,"['Be', 'Si', 'Br', 'Ho']",6,147.0184,5.9497,3m,P3m1,156,trigonal,-30.0214,-1.403,-0.0976,intercalated ion,0.0049,False,0.0,,-0.0976,-0.0518
73829,Br10Rh1Sm5Y1,313cb0cbfb,Sm5YRhBr10,"['Br', 'Y', 'Rh', 'Sm']",17,597.1677,4.8458,1,P1,1,triclinic,-86.4718,-1.9223,-0.0101,3D,0.001,True,-0.0,,-0.0101,-0.01
73856,Au2O14Tb3Y3,31408edfb0,Tb3Y3(AuO7)2,"['O', 'Y', 'Tb', 'Au']",22,300.5438,7.522,m,Pm,6,monoclinic,-172.2038,-2.8674,-0.051,3D,0.1162,True,0.0,,-0.051,-0.0268
73873,Ir3O13Pb3Ru1Tl1,31428df7cb,TlIr3RuPb3O13,"['O', 'Ru', 'Ir', 'Tl', 'Pb']",21,280.0064,10.151,3m,R3m,160,trigonal,-143.4224,-1.4195,-0.032,3D,0.0047,True,0.0,,-0.032,-0.0149
73902,Cl3Cu1S24,3146251681,Cu(S8Cl)3,"['S', 'Cl', 'Cu']",28,885.6336,1.7615,m,Cm,8,monoclinic,-122.8075,-0.496,-0.348,0D,,True,0.0,,-0.348,-0.2795
73933,Bi5O14Tb3,314ce6c8a4,Tb3Bi5O14,"['O', 'Tb', 'Bi']",22,333.6397,8.6883,1,P1,1,triclinic,-155.3628,-2.3972,-0.049,3D,1.4244,True,0.0,,-0.049,-0.0337
73936,Ba6Ir1O12Sb1,314d2d9027,Ba6SbIrO12,"['O', 'Sb', 'Ba', 'Ir']",20,364.9693,6.0509,1,P1,1,triclinic,-133.7964,-2.497,-0.0731,intercalated ion,0.0013,True,0.0,,-0.0731,-0.0343
73954,In2Li6O24P6V2,31510a3614,Li3VIn(PO4)3,"['Li', 'O', 'P', 'V', 'In']",40,487.4825,3.2122,1,P1,1,triclinic,-293.0716,-2.6679,-0.0082,intercalated ion,,True,0.0,,-0.0082,-0.0041
73959,Bi1O15Rh4Sr6,3151705442,Sr6BiRh4O15,"['O', 'Sr', 'Rh', 'Bi']",26,372.6428,6.1776,32,R32,155,trigonal,-174.9667,-2.2024,-0.0035,intercalated ion,0.072,True,0.0,,-0.0035,-0.0034
73990,Cl1F6O2Ta1,315734449f,TaCl(OF3)2,"['O', 'F', 'Cl', 'Ta']",10,162.8879,3.6943,m,Cm,8,monoclinic,-59.6798,-2.4609,-0.0828,0D,2.4072,True,0.0,,-0.0828,-0.0277
74005,O12Pr1U4Y1,3159af5c27,PrYU4O12,"['O', 'Y', 'Pr', 'U']",18,240.2036,9.498,2,C2,5,monoclinic,-185.0799,-3.8495,-0.0475,3D,0.001,True,-0.0,,-0.0475,-0.0184
74027,La2Lu2O14Ta2Y2,315de45605,LaYLuTaO7,"['O', 'Y', 'La', 'Lu', 'Ta']",22,302.7829,7.631,mm2,Ama2,40,orthorhombic,-210.3138,-3.8854,-0.0172,3D,,True,0.0,,-0.0172,-0.0172
74140,Gd1O24Pr6W4Y1,3170c3e4ce,Pr6GdY(WO6)4,"['O', 'Y', 'Pr', 'Gd', 'W']",36,526.8434,6.9686,1,P1,1,triclinic,-336.0632,-3.2292,-0.0214,3D,3.2484,True,0.0,,-0.0214,-0.0206
74166,F28Gd2Ho2Tc4,31752ccf15,GdHoTc2F14,"['F', 'Tc', 'Gd', 'Ho']",36,549.4053,4.7401,2,P2_1,4,monoclinic,-253.0681,-3.3541,-0.1574,3D,,False,0.0,,-0.1574,-0.0945
74196,Cs4Ge4Mg2O12,31791ca9a6,Cs2Mg(GeO3)2,"['O', 'Mg', 'Ge', 'Cs']",22,403.5361,4.3733,222,C222_1,20,orthorhombic,-135.2184,-2.2986,-0.0218,intercalated ion,3.3659,True,0.0,,-0.0218,-0.0218
74241,Cs4O16Sc4Si4,3180726f5b,CsScSiO4,"['O', 'Si', 'Sc', 'Cs']",28,545.4953,3.2869,mm2,Pna2_1,33,orthorhombic,-221.8307,-3.2875,-0.0107,intercalated ion,4.2842,True,0.0,,-0.0107,-0.0107
74288,Ag2Br8In2,31862e8510,InAgBr4,"['Br', 'Ag', 'In']",12,469.021,3.84,-42m,P-42c,112,tetragonal,-36.7811,-1.0431,-0.0037,3D,2.238,True,0.0,,-0.0037,-0.0031
74294,Br2In2Rb12Se8,31868c176a,Rb6InSe4Br,"['Se', 'Br', 'Rb', 'In']",24,900.5341,3.7741,6mm,P6_3mc,186,hexagonal,-81.7041,-1.383,-0.0576,intercalated ion,2.0708,True,0.0,,-0.0576,-0.018
74299,F22Hf1Np2Zr3,318745103d,HfZr3Np2F22,"['F', 'Zr', 'Hf', 'Np']",28,446.5708,4.998,m,Cm,8,monoclinic,-215.6386,-4.0032,-0.0369,3D,0.1327,True,0.0,,-0.0369,-0.0363
74313,La4O24Pt4Sc4Sr4,3189e7d3a2,SrLaScPtO6,"['O', 'Sc', 'Sr', 'La', 'Pt']",40,526.9213,7.0914,m,Pc,7,monoclinic,-313.5687,-2.9676,-0.0289,intercalated ion,1.8781,True,0.0,,-0.0289,-0.0289
74314,Br2Pr9Sn6Y1,3189fd13c8,Pr9Y(Sn3Br)2,"['Br', 'Y', 'Sn', 'Pr']",18,546.2591,6.7762,32,P312,149,trigonal,-94.7383,-0.9951,-0.0492,3D,0.0028,False,0.0,,-0.0492,-0.0465
74334,Br12La12Os3Pt1,318dadd96a,La12Os3PtBr12,"['Br', 'La', 'Os', 'Pt']",28,933.1115,6.0354,32,R32,155,trigonal,-164.3916,-1.6344,-0.106,3D,0.004,False,0.0,,-0.106,-0.1029
74343,Br6Cl1Ir2Te11,318f052523,Te11Ir2Br6Cl,"['Cl', 'Br', 'Te', 'Ir']",20,712.211,5.3693,1,P1,1,triclinic,-78.1154,-0.7096,-0.1931,1D,0.3111,False,0.0,,-0.1931,-0.1277
74367,Eu2Mo1O8W1,3192b5bb02,Eu2MoWO8,"['O', 'Mo', 'Eu', 'W']",12,173.6405,6.8061,-4,I-4,82,tetragonal,-116.4449,-2.7061,-0.0641,3D,0.0028,True,0.0,,-0.0641,-0.0135
74369,Br1Pr18Si15Tb2,3192e91644,Tb2Pr18Si15Br,"['Si', 'Br', 'Pr', 'Tb']",36,960.8394,5.7988,1,P1,1,triclinic,-204.0564,-0.7143,-0.0192,3D,0.0013,True,0.0,,-0.0192,-0.0159
74378,Au4Br24Ce1La3,3193b8bf1e,La3Ce(AuBr6)4,"['Br', 'La', 'Ce', 'Au']",32,1181.2529,4.5861,1,P1,1,triclinic,-121.555,-1.5135,-0.0428,3D,,True,0.0,,-0.0428,-0.0358
74385,Bi3Ho2Lu3O14,319501a687,Ho2Lu3Bi3O14,"['O', 'Ho', 'Lu', 'Bi']",22,309.6458,9.1471,1,P1,1,triclinic,-168.9243,-2.9661,-0.0457,3D,,True,0.0,,-0.0457,-0.0194
74419,Bi2Gd1O16Sb4Tl1,319a8de50b,GdTlBi2(SbO4)4,"['O', 'Sb', 'Gd', 'Tl', 'Bi']",24,355.3509,7.1152,1,P1,1,triclinic,-168.5716,-2.0271,-0.053,3D,,True,0.0,,-0.053,-0.0426
74480,F28Hf3La3Pr1Pt1,31a38fcd23,La3PrHf3PtF28,"['F', 'La', 'Pr', 'Hf', 'Pt']",36,610.4778,4.9509,1,P1,1,triclinic,-252.4845,-3.9842,-0.0047,3D,2.7204,True,0.0,,-0.0047,-0.004
74505,F28Ho2Rh4Tm2,31a7c25055,HoTmRh2F14,"['F', 'Rh', 'Ho', 'Tm']",36,508.9556,5.2571,2,P2_1,4,monoclinic,-208.8622,-2.9935,-0.1164,3D,0.0026,True,0.0,,-0.1164,-0.0297
74506,Ca1Na4O6Rh1,31a7c60ca0,Na4CaRhO6,"['O', 'Na', 'Ca', 'Rh']",12,153.425,3.5818,2,C2,5,monoclinic,-66.2923,-1.8287,-0.1354,intercalated ion,0.1768,True,0.0,,-0.1354,-0.0598
74520,K4O14Pu4,31a9e0edb2,K2Pu2O7,"['O', 'K', 'Pu']",22,370.1276,6.0853,2,P2_1,4,monoclinic,-195.5725,-2.9449,-0.1987,intercalated ion,,True,0.0,,-0.1987,-0.1972
74611,Mg1O13Os3Pb4,31b8ef4338,MgOs3Pb4O13,"['O', 'Mg', 'Os', 'Pb']",21,287.285,9.4319,3m,R3m,160,trigonal,-149.6471,-1.6757,-0.0737,3D,0.0035,True,-0.0,,-0.0737,-0.0093
74617,Li3O24Pb12,31ba1d32d5,Li(PbO2)4,"['Li', 'O', 'Pb']",39,589.8207,8.1397,1,P1,1,triclinic,-225.4173,-1.4458,-0.0129,intercalated ion,0.0028,True,-0.0,,-0.0129,-0.0118
74625,O18Ta6Tb1Y1,31bbbf35d9,TbYTa6O18,"['O', 'Y', 'Tb', 'Ta']",26,333.0282,8.0851,m,Pm,6,monoclinic,-262.7663,-3.5175,-0.001,3D,3.297,False,0.0,,-0.001,-0.001
74638,Ir1Nb1O12Pr5,31bdba1134,Pr5NbIrO12,"['O', 'Nb', 'Pr', 'Ir']",19,290.8869,6.7455,2,C2,5,monoclinic,-164.7347,-3.2903,-0.0115,3D,0.0081,True,0.0,,-0.0115,-0.0115
74639,Cu3O24Tc6,31bdcf12b9,Cu(TcO4)2,"['O', 'Cu', 'Tc']",33,603.6305,3.1983,3,R3,146,trigonal,-248.4834,-1.6749,-0.0306,3D,0.0013,True,0.0,,-0.0306,-0.0305
74662,Br2N1Sm1Tb1,31c0c366a5,TbSmBr2N,"['N', 'Br', 'Sm', 'Tb']",5,128.2908,6.253,3m,P3m1,156,trigonal,-30.8906,-1.9855,-0.0268,2D,0.0403,True,0.0,,-0.0268,-0.0035
74681,Br18Cs4Nb1Ta5,31c4a0ab76,Cs4Ta5NbBr18,"['Br', 'Nb', 'Cs', 'Ta']",28,1033.3992,4.7685,1,P1,1,triclinic,-145.015,-1.5207,-0.0268,0D,1.3275,True,-0.0,,-0.0268,-0.0268
74756,Ac1O24Pr7W4,31d1b8e629,AcPr7(WO6)4,"['O', 'Pr', 'W', 'Ac']",36,537.4001,7.2079,1,P1,1,triclinic,-324.3576,-3.2274,-0.0511,3D,,True,0.0,,-0.0511,-0.0511
74790,O24P8Rb2Rh2,31d6c706f3,RbP4RhO12,"['O', 'P', 'Rb', 'Rh']",36,524.6124,3.1922,2,P2_1,4,monoclinic,-265.3418,-2.4054,-0.014,intercalated ion,2.0,True,0.0,,-0.014,-0.0131
74801,Br20Re12S8,31d902dc84,Re3S2Br5,"['S', 'Br', 'Re']",40,1229.7805,5.5214,1,P1,1,triclinic,-250.2846,-0.878,-0.1412,0D,,True,0.0,,-0.1412,-0.0467
74862,Ga4O1Si2Ti10,31e2d0858d,Ti10Ga4Si2O,"['O', 'Si', 'Ti', 'Ga']",17,257.8947,5.3425,m,Cm,8,monoclinic,-121.6482,-0.8695,-0.0439,3D,0.0008,True,-0.0,,-0.0439,-0.0432
74898,Gd3O14Os2Sm3,31e8dacc69,Sm3Gd3(OsO7)2,"['O', 'Sm', 'Gd', 'Os']",22,301.5121,8.4113,m,Pm,6,monoclinic,-217.4342,-3.1511,-0.0107,3D,0.0751,False,0.0,,-0.0107,-0.0061
74916,In6Lu1O18Pr5,31eb16eb9c,Pr5LuIn6O18,"['O', 'In', 'Pr', 'Lu']",30,464.1448,6.6415,3,P3,143,trigonal,-221.139,-2.9047,-0.0056,3D,2.0197,True,0.0,,-0.0056,-0.0056
74963,O14P4Tl1V1,31f28a2652,TlV(P2O7)2,"['O', 'P', 'V', 'Tl']",20,285.1919,3.5122,1,P1,1,triclinic,-149.9983,-2.3814,-0.0224,3D,,True,0.0,,-0.0224,-0.022
74964,Ba4Cd1O16Os3Tl1,31f2b330ca,Ba4TlCdOs3O16,"['O', 'Cd', 'Ba', 'Os', 'Tl']",25,390.2035,7.2038,1,P1,1,triclinic,-176.1168,-2.0923,-0.0402,intercalated ion,0.0086,True,0.0,,-0.0402,-0.0376
74981,F7In1,31f6976002,InF7,"['F', 'In']",8,145.596,2.8263,1,P1,1,triclinic,-29.0124,-1.61,-0.1927,intercalated molecule,3.0197,True,-0.0,,-0.1927,-0.1927
75036,B1Br20Ho3Rb8Tb3,31ffebb8a1,Rb8Tb3Ho3BBr20,"['B', 'Br', 'Rb', 'Tb', 'Ho']",35,1312.0688,4.1311,mm2,Fmm2,42,orthorhombic,-146.7035,-2.0512,-0.0475,intercalated ion,inf,True,0.0,,-0.0475,-0.0272
75072,Ag2F12Ru1Tc1,3206c4da87,TcAg2RuF12,"['F', 'Tc', 'Ru', 'Ag']",16,260.7761,4.0931,1,P1,1,triclinic,-81.1163,-2.0549,-0.1193,3D,0.5867,True,0.0,,-0.1193,-0.1138
75083,Br13Cl3Pa4,320823075b,Pa4Br13Cl3,"['Cl', 'Br', 'Pa']",20,754.8905,4.5518,1,P1,1,triclinic,-104.5362,-1.9826,-0.0285,2D,,True,0.0,,-0.0285,-0.0126
75120,Ca2K8O18Si6,320dfe41f9,K4Ca(SiO3)3,"['O', 'Si', 'K', 'Ca']",34,519.2604,2.7164,mm2,Ama2,40,orthorhombic,-233.6157,-2.9149,-0.011,intercalated ion,4.144,False,0.0,,-0.011,-0.0106
75148,Ga1O13Pb4W3,32133a5d6e,GaPb4W3O13,"['O', 'Ga', 'W', 'Pb']",21,298.5023,9.2235,3m,R3m,160,trigonal,-162.4783,-1.9715,-0.0121,3D,0.2417,True,0.0,,-0.0121,-0.0101
75236,Br12Hf1Pt1Se1,3221fb36a9,HfPtSeBr12,"['Se', 'Br', 'Hf', 'Pt']",15,606.9242,3.8615,m,Cm,8,monoclinic,-55.4786,-1.0874,-0.1143,0D,1.773,True,-0.0,,-0.1143,-0.0224
75243,B1Br12Sc7,3223b0a6fa,Sc7BBr12,"['B', 'Sc', 'Br']",20,531.2474,4.0145,3,R3,146,trigonal,-107.5317,-1.8441,-0.1256,1D,0.0022,True,-0.0,,-0.1256,-0.0352
75322,Ba3Ga3O14Sb1Si2,3232bb6843,Ba3Ga3Si2SbO14,"['O', 'Si', 'Ga', 'Sb', 'Ba']",23,337.6675,5.0311,32,P321,150,trigonal,-165.1991,-2.8742,-0.0297,intercalated ion,3.2997,True,0.0,,-0.0297,-0.0296
75323,F28Ho1Lu3V4,3232dbbeba,HoLu3V4F28,"['F', 'V', 'Ho', 'Lu']",36,501.9622,4.7159,1,P1,1,triclinic,-240.9752,-3.6937,-0.0422,3D,,True,0.0,,-0.0422,-0.0229
75388,Cs3F12Rb1,323ec407bc,Cs3RbF12,"['F', 'Rb', 'Cs']",16,359.8655,3.2862,1,P1,1,triclinic,-55.885,-1.83,-0.3102,intercalated ion,2.1396,True,0.0,,-0.3102,-0.0723
75402,As1F1I10,32404ffe7d,AsI10F,"['F', 'As', 'I']",12,701.6874,3.2254,1,P1,1,triclinic,-29.1379,-0.6106,-0.2284,intercalated molecule,,True,0.0,,-0.2284,-0.2282
75413,La6O3Si8Sr1Tm3,3242682b9d,SrLa6Tm3Si8O3,"['O', 'Si', 'Sr', 'La', 'Tm']",21,453.4308,6.2277,mm2,Amm2,38,orthorhombic,-134.9982,-1.5247,-0.0263,intercalated ion,0.0011,True,0.0,,-0.0263,-0.0254
75446,Li4O16Pa2V6,324827ba1b,Li2PaV3O8,"['Li', 'O', 'V', 'Pa']",28,326.2168,5.3523,6mm,P6_3mc,186,hexagonal,-242.0321,-2.9177,-0.0765,intercalated ion,1.5285,True,0.0,,-0.0765,-0.0167
75492,F28Hf3Lu4Pt1,324fdf7973,Lu4Hf3PtF28,"['F', 'Lu', 'Hf', 'Pt']",36,522.7955,6.233,1,P1,1,triclinic,-250.7158,-3.9769,-0.005,3D,2.6059,True,0.0,,-0.005,-0.005
75547,Br2Ga1La2Pt1,325ad5ac46,La2GaPtBr2,"['Ga', 'Br', 'La', 'Pt']",6,191.6106,6.0874,3m,P3m1,156,trigonal,-32.1402,-1.6492,-0.0183,2D,,True,0.0,,-0.0183,-0.0048
75595,Bi1Gd1O12Tb5,326440034d,Tb5GdBiO12,"['O', 'Gd', 'Tb', 'Bi']",19,276.8855,8.1133,1,P1,1,triclinic,-165.5756,-3.4232,-0.0599,3D,,True,0.0,,-0.0599,-0.0333
75711,Na6Nb2O2Se6,32762f1065,Na3NbSe3O,"['O', 'Na', 'Se', 'Nb']",16,411.8011,3.3449,mm2,Cmc2_1,36,orthorhombic,-84.2591,-1.5781,-0.0621,intercalated ion,2.1679,False,0.0,,-0.0621,-0.0385
75725,Bi3Gd5O14,32787c7cb6,Gd5Bi3O14,"['O', 'Gd', 'Bi']",22,328.7963,8.2684,1,P1,1,triclinic,-215.0142,-2.8951,-0.084,3D,1.2573,True,0.0,,-0.084,-0.0759
75726,Br16Ga4Ge2,327884fb85,Ga2GeBr8,"['Ga', 'Ge', 'Br']",22,840.4684,3.364,m,Pc,7,monoclinic,-73.1043,-1.1616,-0.0077,0D,3.1349,False,0.0,,-0.0077,-0.0077
75727,B1Br18Hf4Rb4Zr2,3278853e1a,Rb4Hf4Zr2BBr18,"['B', 'Br', 'Rb', 'Zr', 'Hf']",29,1004.5489,4.4423,1,P1,1,triclinic,-150.5633,-1.8473,-0.0531,0D,0.1044,False,-0.0,,-0.0531,-0.0403
75867,O16Os4Pr1Tb3,3290c18c02,Tb3Pr(OsO4)4,"['O', 'Pr', 'Tb', 'Os']",24,308.5234,8.7977,1,P1,1,triclinic,-203.2258,-2.5194,-0.0403,3D,0.0042,False,-0.0,,-0.0403,-0.0232
75889,Ca2Gd3O19U5,3293b97d0a,Ca2Gd3U5O19,"['O', 'Ca', 'Gd', 'U']",29,399.6569,8.5011,1,P1,1,triclinic,-307.8493,-3.8304,-0.0708,intercalated ion,,False,-0.0,,-0.0708,-0.0662
75945,Ga4O20Sc1Sn4V3,329ffa842f,ScV3Ga4(SnO5)4,"['O', 'Sc', 'V', 'Ga', 'Sn']",32,403.0419,5.2386,m,Pm,6,monoclinic,-237.9252,-2.4135,-0.0094,3D,0.5998,True,0.0,,-0.0094,-0.0086
75951,O13Pb4Sn2Ta2,32a140f086,Ta2Sn2Pb4O13,"['O', 'Sn', 'Ta', 'Pb']",21,309.9115,8.7664,mm2,Imm2,44,orthorhombic,-160.2528,-2.3497,-0.0228,3D,1.4555,True,0.0,,-0.0229,-0.0229
76020,Cd1La8O26Si6Sr1,32ad347c78,SrLa8Cd(Si3O13)2,"['O', 'Si', 'Sr', 'Cd', 'La']",42,593.816,5.3013,3,P3,143,trigonal,-355.2422,-3.6177,-0.021,intercalated ion,,True,0.0,,-0.021,-0.0074
76036,Au1Br8Hg3O24,32aff7842b,Hg3Au(BrO3)8,"['O', 'Br', 'Au', 'Hg']",36,702.8079,4.3048,1,P1,1,triclinic,-148.0558,-0.334,-0.0666,3D,,True,0.0,,-0.0666,-0.059
76046,Br18Cs1Ta6Tm1,32b10c1fbc,CsTm(TaBr3)6,"['Br', 'Cs', 'Tm', 'Ta']",26,802.4562,5.8475,3,R3,146,trigonal,-144.9601,-1.4991,-0.0219,intercalated ion,,True,0.0,,-0.0219,-0.0107
76133,Cs6F16Pu2,32be43219a,Cs3PuF8,"['F', 'Cs', 'Pu']",24,587.8783,4.4895,6mm,P6_3mc,186,hexagonal,-143.9781,-3.3119,-0.3068,intercalated ion,,True,0.0,,-0.3068,-0.118
76156,Ho5O24Pr2W4Y1,32c29142d7,Pr2YHo5(WO6)4,"['O', 'Y', 'Pr', 'Ho', 'W']",36,474.3151,8.1036,2,P2,3,monoclinic,-328.2372,-3.2976,-0.0143,3D,,False,0.0,,-0.0143,-0.014
76158,Bi5O18Pr1Ru3,32c2b4cf25,PrBi5(RuO6)3,"['O', 'Ru', 'Pr', 'Bi']",27,392.1206,7.5252,2,C2,5,monoclinic,-188.2191,-1.7445,-0.0433,3D,,True,0.0,,-0.0433,-0.0433
76163,Br2Pb6Pr5Y5,32c3af08bf,Pr5Y5(Pb3Br)2,"['Br', 'Y', 'Pr', 'Pb']",18,537.7241,7.881,mm2,Amm2,38,orthorhombic,-97.2681,-0.8601,-0.0292,3D,0.0004,True,0.0,,-0.0292,-0.0277
76175,O20Pr3Si4Sm1Y4,32c593d730,Pr3SmY4(SiO5)4,"['O', 'Si', 'Y', 'Pr', 'Sm']",32,466.4171,4.8456,1,P1,1,triclinic,-285.6735,-3.7527,-0.0192,3D,4.6873,True,0.0,,-0.0192,-0.0045
76274,Cl15Lu1Pt1Th5,32d833596e,LuTh5PtCl15,"['Cl', 'Lu', 'Pt', 'Th']",22,730.2176,4.6891,4mm,I4mm,107,tetragonal,-128.7048,-2.4234,-0.0193,3D,0.9098,False,0.0,,-0.0193,-0.0033
76275,B20Cd4La1O40Pr3,32d8346fc0,LaPr3Cd4(BO2)20,"['B', 'O', 'Cd', 'La', 'Pr']",68,685.2548,4.5253,1,P1,1,triclinic,-551.3575,-2.8953,-0.0025,3D,4.4057,True,0.0,,-0.0025,-0.002
76320,C4Eu2O12Pb2,32df858861,EuPb(CO3)2,"['C', 'O', 'Eu', 'Pb']",20,276.6763,5.7518,mm2,Pmn2_1,31,orthorhombic,-168.6776,-2.2193,-0.0029,2D,0.0049,True,0.0,,-0.0029,-0.0009
76345,F20Lu1Rb2Y5,32e2b34330,Rb2Y5LuF20,"['F', 'Rb', 'Y', 'Lu']",28,400.1496,4.8569,4mm,I4mm,107,tetragonal,-196.5953,-4.2697,-0.0381,intercalated ion,,True,0.0,,-0.0381,-0.004
76398,Cd1O10Pa3Sm1,32ec202675,SmPa3CdO10,"['O', 'Cd', 'Sm', 'Pa']",15,200.4305,9.2449,m,Cm,8,monoclinic,-140.1413,-3.7651,-0.2948,3D,2.6769,True,0.0,,-0.2948,-0.2939
76449,Cu4La1O8Sr1,32f582fef5,SrLa(CuO2)4,"['O', 'Cu', 'Sr', 'La']",14,172.6769,5.8536,-4,I-4,82,tetragonal,-88.7766,-1.8693,-0.073,intercalated ion,0.0116,True,0.0,,-0.073,-0.073
76465,As1Au1Ba1F12,32f896892c,BaAsAuF12,"['F', 'As', 'Ba', 'Au']",15,272.007,3.8899,mm2,Pmm2,25,orthorhombic,-68.0606,-2.3514,-0.0602,intercalated ion,,True,0.0,,-0.0602,-0.0472
76554,La4Nb3O24Ta1Te4,3306a539df,La4TaNb3(TeO6)4,"['O', 'Nb', 'Te', 'La', 'Ta']",36,538.0305,5.8939,1,P1,1,triclinic,-297.7186,-2.9025,-0.0032,3D,3.3032,True,0.0,,-0.0032,-0.0002
76555,Cs4O14V4Zn2,3306a952b5,Cs2V2ZnO7,"['O', 'V', 'Zn', 'Cs']",24,484.093,3.7396,-42m,P-42_1m,113,tetragonal,-167.7317,-2.3343,-0.0202,intercalated ion,3.3486,True,0.0,,-0.0202,-0.0202
76557,Ca4Ho2O12U2,3307057a84,Ca2HoUO6,"['O', 'Ca', 'Ho', 'U']",20,310.273,6.1987,1,P1,1,triclinic,-174.11,-3.7482,-0.0361,intercalated ion,0.8507,True,0.0,,-0.0361,-0.0361
76575,Ca12Ge6O48Sc8Ti6,330a0549d1,Ca6Sc4Ti3(GeO8)3,"['O', 'Ca', 'Sc', 'Ti', 'Ge']",80,1029.3141,3.7614,-4,I-4,82,tetragonal,-658.2535,-3.3864,-0.0126,intercalated ion,,True,0.0,,-0.0126,-0.0126
76592,F24Pa3Pr3,330cf186a2,PrPaF8,"['F', 'Pr', 'Pa']",30,494.3583,5.2796,1,P1,1,triclinic,-216.3693,-4.2536,-2.4888,3D,,True,-0.0,,-2.4888,-1.0405
76652,C8Cl12Gd5Sm11,3317aacae5,Sm11Gd5(C2Cl3)4,"['C', 'Cl', 'Sm', 'Gd']",36,814.1985,6.0404,m,Pm,6,monoclinic,-271.7137,-1.4842,-0.1198,3D,,True,0.0,,-0.1198,-0.0115
76655,Br3Ge1S24,3318a2e5fe,Ge(S8Br)3,"['S', 'Ge', 'Br']",28,1010.6531,1.7776,3m,R3m,160,trigonal,-123.9788,-0.5418,-0.3815,0D,0.458,True,0.0,,-0.3815,-0.3815
76676,F14Hf1Tm2Zr1,331bf8572a,Tm2HfZrF14,"['F', 'Zr', 'Tm', 'Hf']",18,274.0612,5.2929,1,P1,1,triclinic,-131.3631,-4.2859,-0.001,3D,5.9102,False,0.0,,-0.001,-0.0002
76686,Cl12In1Na6Tl1,331dd070a0,Na6TlInCl12,"['Na', 'Cl', 'In', 'Tl']",20,531.3568,2.7581,32,P312,149,trigonal,-71.554,-1.8148,-0.0049,intercalated ion,,True,0.0,,-0.0049,-0.0043
76729,Gd5O12Ru1Tc1,3326571f7b,Gd5TcRuO12,"['O', 'Tc', 'Ru', 'Gd']",19,263.0385,7.4323,2,C2,5,monoclinic,-210.3368,-3.2077,-0.0722,3D,0.2173,True,0.0,,-0.0722,-0.0467
76744,Br1Cl5Gd1Na3,332a27efab,Na3GdBrCl5,"['Na', 'Cl', 'Br', 'Gd']",10,284.2216,2.8242,1,P1,1,triclinic,-52.0765,-2.3153,-0.0072,intercalated ion,2.5772,True,0.0,,-0.0072,-0.0
76819,Gd4O12Rh1Tm2Y1,3336720d73,Gd4YTm2RhO12,"['O', 'Y', 'Rh', 'Gd', 'Tm']",20,292.5844,7.6656,1,P1,1,triclinic,-211.048,-3.6293,-0.0182,3D,1.6066,False,0.0,,-0.0182,-0.012
76820,K1Li14O14Rb1Zr3,3336a8a266,KRbLi14Zr3O14,"['Li', 'O', 'K', 'Rb', 'Zr']",33,366.1,3.263,mm2,Imm2,44,orthorhombic,-209.1809,-2.5894,-0.0273,intercalated ion,4.4371,True,0.0,,-0.0273,-0.0096
76852,Cs12Eu4O14,333bad7a86,Cs6Eu2O7,"['O', 'Cs', 'Eu']",30,929.5618,4.335,2,P2_1,4,monoclinic,-179.6498,-1.9488,-0.0881,0D,,True,0.0,,-0.0881,-0.0576