Unnamed: 0,Composition,MaterialId,Reduced Formula,Elements,NSites,Volume,Density,Point Group,Space Group,Space Group Number,Crystal System,Corrected Energy,Formation Energy Per Atom,Decomposition Energy Per Atom,Dimensionality Cheon,Bandgap,Is Train,Decomposition Energy Per Atom All,Decomposition Energy Per Atom Relative,Decomposition Energy Per Atom MP,Decomposition Energy Per Atom MP OQMD
149926,F8Ho3O2Y1,63d1effc1b,YHo3(OF4)2,"['O', 'F', 'Y', 'Ho']",14,184.718,6.9012,1,P1,1,triclinic,-106.8955,-4.3924,-0.0166,3D,6.3132,True,-0.0,,-0.0166,-0.0091
149943,Eu1O6Ti1W1,63d5d2d109,EuTiWO6,"['O', 'Ti', 'Eu', 'W']",9,123.7098,6.4385,32,P312,149,trigonal,-87.9114,-3.0087,-0.0605,3D,0.1941,True,0.0,,-0.0605,-0.0269
149946,H2Li3O5,63d5daeb9e,Li3H2O5,"['H', 'Li', 'O']",10,116.3029,1.4683,1,P1,1,triclinic,-52.6491,-1.5397,-0.1168,intercalated ion,1.0653,True,0.0,,-0.1168,-0.1131
149953,F28Ru4Tm3Y1,63d6c28e91,YTm3Ru4F28,"['F', 'Y', 'Ru', 'Tm']",36,519.9451,4.8925,1,P1,1,triclinic,-222.9078,-3.1221,-0.1534,3D,0.0017,True,0.0,,-0.1534,-0.0236
149960,Cd2Cl1Gd4Pd3,63d796d3d4,Gd4Cd2Pd3Cl,"['Cl', 'Pd', 'Cd', 'Gd']",10,234.1501,8.5707,mm2,Amm2,38,orthorhombic,-93.5976,-1.8059,-0.8185,3D,,True,0.0,,-0.8185,-0.8122
150060,Ho2O24Tm5W4Y1,63e731df0f,YHo2Tm5(WO6)4,"['O', 'Y', 'Ho', 'Tm', 'W']",36,452.0915,8.752,2,P2,3,monoclinic,-328.6552,-3.335,-0.0043,3D,3.6434,False,0.0,,-0.0043,-0.004
150104,Cl3Ga1S24,63ef3e87e4,Ga(S8Cl)3,"['S', 'Cl', 'Ga']",28,1038.3088,1.5123,3m,R3m,160,trigonal,-125.8043,-0.6413,-0.4173,0D,,True,0.0,,-0.4173,-0.4173
150112,Br2In3Pr10Tl3,63f015980b,Pr10Tl3In3Br2,"['Br', 'In', 'Pr', 'Tl']",18,558.8853,7.5066,m,Pm,6,monoclinic,-78.4867,-0.6702,-0.0141,3D,,False,0.0,,-0.0141,-0.0134
150133,Al1O12Ru1Tb1Y4,63f30ed095,TbY4AlRuO12,"['O', 'Al', 'Y', 'Ru', 'Tb']",19,250.7182,5.5276,1,P1,1,triclinic,-166.9018,-3.3687,-0.0158,3D,0.0006,True,0.0,,-0.0158,-0.0111
150145,Al1F1O17Re4V1,63f48e165e,AlVRe4O17F,"['O', 'F', 'Al', 'V', 'Re']",24,384.6891,4.8075,m,Cm,8,monoclinic,-204.2561,-2.3176,-0.0146,2D,,True,0.0,,-0.0146,-0.0129
150226,Mg1O9Sb1Sr3Ta1,64010a5bd9,Sr3MgTaSbO9,"['O', 'Mg', 'Sr', 'Sb', 'Ta']",15,198.4759,6.1399,3m,P3m1,156,trigonal,-113.3436,-3.0771,-0.0081,intercalated ion,3.4837,True,0.0,,-0.0081,-0.0081
150239,Ir1La3O12Pr3,6403c80fee,La3Pr3IrO12,"['O', 'La', 'Pr', 'Ir']",19,304.5215,6.6725,1,P1,1,triclinic,-159.948,-3.2939,-0.0372,3D,0.5863,True,0.0,,-0.0372,-0.0348
150312,O2Si6Tb3Y7,640d76f927,Tb3Y7(Si3O)2,"['O', 'Si', 'Y', 'Tb']",18,384.5922,5.6114,m,Pm,6,monoclinic,-125.8113,-1.3442,-0.0194,3D,0.0045,True,0.0,,-0.0194,-0.0186
150384,O16Rb8Si4Zn4,6419d3b01a,Rb2ZnSiO4,"['O', 'Si', 'Zn', 'Rb']",32,559.2177,3.9009,2,Cmc2_1,36,orthorhombic,-191.7671,-2.438,-0.0142,intercalated ion,3.1147,False,0.0,,-0.0142,-0.0142
150397,Cl6Mg1Pd1,641b4c939b,MgPdCl6,"['Mg', 'Cl', 'Pd']",8,216.7215,2.6315,2,C2,5,monoclinic,-28.8661,-1.3743,-0.191,2D,,True,-0.0,,-0.191,-0.0367
150405,Bi1O12Pr5W1,641ccccede,Pr5BiWO12,"['O', 'Pr', 'W', 'Bi']",19,301.5427,7.1002,1,P1,1,triclinic,-161.3771,-3.2236,-0.0239,3D,2.8162,True,0.0,,-0.0239,-0.0239
150418,Bi1Lu1O18Sc4Te3,641ea9be57,LuSc4Bi(TeO6)3,"['O', 'Sc', 'Te', 'Lu', 'Bi']",27,349.2838,5.8693,1,P1,1,triclinic,-206.216,-2.7401,-0.009,3D,2.6619,True,0.0,,-0.009,-0.0084
150424,Br3Cd1S24,641fcbda0a,Cd(S8Br)3,"['S', 'Br', 'Cd']",28,1040.6487,1.7898,3m,R3m,160,trigonal,-120.0345,-0.5331,-0.378,0D,,True,0.0,,-0.378,-0.2959
150486,La1O24Pr3V4W4,64285f5ff2,LaPr3V4(WO6)4,"['O', 'V', 'La', 'Pr', 'W']",36,462.5298,6.7664,1,P1,1,triclinic,-328.6613,-2.8462,-0.0195,3D,,True,-0.0,,-0.0195,-0.0019
150546,Ba6In2Lu1O12Y1,6431cfa347,Ba6YLuIn2O12,"['O', 'Y', 'In', 'Ba', 'Lu']",22,386.7326,6.4813,32,R32,155,trigonal,-152.6642,-2.9675,-0.0209,intercalated ion,3.1329,True,0.0,,-0.0209,-0.0197
150622,F28Ho1Tc4Y3,643da4037a,Y3HoTc4F28,"['F', 'Y', 'Tc', 'Ho']",36,533.0886,4.2226,1,P1,1,triclinic,-239.7993,-3.357,-0.0933,3D,1.6189,True,0.0,,-0.0933,-0.0932
150637,Bi2O14Sb2Tb1Tl3,644079e867,TbTl3Bi2(SbO7)2,"['O', 'Sb', 'Tb', 'Tl', 'Bi']",22,313.5845,8.7773,m,Pm,6,monoclinic,-138.0193,-1.8632,-0.0096,3D,1.5777,True,0.0,,-0.0096,-0.0096
150653,Cl3S24Tc1,64432f9333,Tc(S8Cl)3,"['S', 'Cl', 'Tc']",28,979.347,1.6513,1,P1,1,triclinic,-130.4505,-0.5453,-0.3414,0D,,True,0.0,,-0.3414,-0.3414
150658,C2Cl2Gd1Sm3,6443da2348,Sm3Gd(CCl)2,"['C', 'Cl', 'Sm', 'Gd']",8,167.9857,6.9517,3m,P3m1,156,trigonal,-59.93,-1.1934,-0.1166,3D,0.005,True,0.0,,-0.1166,-0.0001
150664,Br18Nb3Rb2Sr1Ta3,6444e9be32,Rb2SrTa3(NbBr6)3,"['Br', 'Rb', 'Sr', 'Nb', 'Ta']",27,826.1868,5.0617,1,P1,1,triclinic,-140.5846,-1.5404,-0.0046,intercalated ion,1.1724,True,0.0,,-0.0046,-0.0046
150722,Br12La4Si2Sm3Tb1,644f34ece9,La4TbSm3(SiBr6)2,"['Si', 'Br', 'La', 'Sm', 'Tb']",22,843.3788,4.2935,m,Pm,6,monoclinic,-111.9297,-1.9501,-0.0351,3D,0.0023,True,0.0,,-0.0351,-0.0268
150787,F28Hf3Np4Zr1,645970812c,Hf3ZrNp4F28,"['F', 'Zr', 'Hf', 'Np']",36,609.7441,5.7371,1,P1,1,triclinic,-288.2988,-4.0158,-0.0521,3D,,True,0.0,,-0.0521,-0.0513
150801,Ca4Ge1O16Sr4Ti3,645b6e6f98,Sr4Ca4Ti3GeO16,"['O', 'Ca', 'Ti', 'Ge', 'Sr']",28,461.9529,3.5336,m,Pm,6,monoclinic,-216.8761,-3.3792,-0.0275,intercalated ion,,False,0.0,,-0.0275,-0.0274
150835,Bi1F1O11Y6,6462b88254,Y6BiO11F,"['O', 'F', 'Y', 'Bi']",19,276.9959,5.6196,1,P1,1,triclinic,-166.6995,-3.5617,-0.0504,3D,,True,0.0,,-0.0504,-0.0263
150869,F28Ho4Pt1Tc3,646a492f0e,Ho4Tc3PtF28,"['F', 'Tc', 'Ho', 'Pt']",36,524.8787,5.3174,1,P1,1,triclinic,-226.2678,-3.2573,-0.0548,3D,1.5429,False,0.0,,-0.0548,-0.0517
150929,F20Ho5Lu1Rb2,6475dc04bf,Rb2Ho5LuF20,"['F', 'Rb', 'Ho', 'Lu']",28,392.2351,6.5642,4mm,I4mm,107,tetragonal,-188.0152,-4.2997,-0.0415,intercalated ion,7.142,True,0.0,,-0.0415,-0.0026
150932,Br3S24V1,64765985f1,V(S8Br)3,"['S', 'V', 'Br']",28,998.5317,1.7631,3m,R3m,160,trigonal,-129.1051,-0.5656,-0.3285,0D,0.7578,False,0.0,,-0.3285,-0.3209
150976,Bi6O18Pt1Ru2,647e92041b,Bi6Ru2PtO18,"['O', 'Ru', 'Pt', 'Bi']",27,389.1633,8.274,3,P3,143,trigonal,-177.0777,-1.4835,-0.0314,3D,0.0015,True,-0.0,,-0.0314,-0.0314
151066,Gd1La1O24Pr6W4,648abaff5d,LaPr6Gd(WO6)4,"['O', 'La', 'Pr', 'Gd', 'W']",36,535.0663,7.0167,1,P1,1,triclinic,-334.7427,-3.235,-0.0252,3D,3.1943,True,0.0,,-0.0252,-0.0244
151067,Ag1Cu4Lu1O8,648ac2298d,LuCu4AgO8,"['O', 'Cu', 'Ag', 'Lu']",14,153.5434,7.192,-4,I-4,82,tetragonal,-83.3522,-1.4299,-0.0133,3D,0.1416,True,0.0,,-0.0133,-0.0108
151075,As8Cd1Mg7O20,648c4d582a,Mg7Cd(As2O5)4,"['O', 'Mg', 'As', 'Cd']",36,510.5325,3.9093,1,P1,1,triclinic,-227.8109,-2.2071,-0.0288,3D,3.0691,True,0.0,,-0.0288,-0.0287
151077,Br12La10Pr2Pt4,648cb25c9b,La5Pr(PtBr3)2,"['Br', 'La', 'Pr', 'Pt']",28,949.8304,5.9616,2,C2,5,monoclinic,-153.1343,-1.7959,-0.0449,3D,0.0044,True,0.0,,-0.0449,-0.0444
151086,Ho1Na4O6Ru1,648dae2626,Na4HoRuO6,"['O', 'Na', 'Ru', 'Ho']",12,152.4769,4.9438,2,C2,5,monoclinic,-75.3003,-2.2055,-0.0021,intercalated ion,0.6807,False,0.0,,-0.0021,-0.0014
151102,F30Np7Sb1,649038062a,Np7SbF30,"['F', 'Sb', 'Np']",38,619.5336,6.3006,2,C2,5,monoclinic,-294.115,-3.737,-0.0052,3D,inf,True,0.0,,-0.0052,-0.0051
151121,Ir1O12Tb1Y5,6492554c7c,TbY5IrO12,"['O', 'Y', 'Tb', 'Ir']",19,264.157,6.2086,1,P1,1,triclinic,-169.8498,-3.4036,-0.0596,3D,0.4834,True,0.0,,-0.0596,-0.0442
151140,F14Lu2Pb2,64962d5038,LuPbF7,"['F', 'Lu', 'Pb']",18,280.0847,6.1084,2,P2_1,4,monoclinic,-101.6072,-3.2433,-0.0423,3D,2.5828,True,0.0,,-0.0423,-0.0168
151151,Eu8Ga12O48Sc8Y4,649857fbac,Eu2YSc2(GaO4)3,"['O', 'Sc', 'Ga', 'Y', 'Eu']",80,994.8577,5.9014,2,C2,5,monoclinic,-688.7474,-3.2006,-0.0221,inf,,True,0.0,,-0.0221,-0.013
151158,Al1Bi4Ga3O20Ti4,6499074071,Ti4AlGa3(BiO5)4,"['O', 'Al', 'Ti', 'Ga', 'Bi']",32,393.7663,6.6778,2,P2,3,monoclinic,-243.8996,-2.6553,-0.0115,3D,2.4216,True,0.0,,-0.0115,-0.0115
151178,Ir1O12Rh3Sr2,649ba5dce2,Sr2Ir(RhO4)3,"['O', 'Sr', 'Rh', 'Ir']",18,257.0154,5.6091,32,P312,149,trigonal,-123.6522,-1.6648,-0.1094,intercalated ion,,True,0.0,,-0.1094,-0.0841
151179,Cs4F20Rh4,649ba7bfec,CsRhF5,"['F', 'Rh', 'Cs']",28,543.1219,4.0456,mm2,Pmc2_1,26,orthorhombic,-134.8655,-2.2713,-0.0413,intercalated ion,0.0006,True,0.0,,-0.0413,-0.0102
151195,B1Br12Ge3Sm12,649e002f23,Sm12Ge3BBr12,"['B', 'Ge', 'Br', 'Sm']",28,829.7717,5.9874,32,R32,155,trigonal,-141.8304,-1.6077,-0.0563,3D,0.0019,True,0.0,,-0.0563,-0.0498
151220,As1O22Te6V3,64a1e9f436,V3Te6AsO22,"['O', 'V', 'As', 'Te']",32,530.9902,4.2072,1,P1,1,triclinic,-216.8833,-1.7893,-0.0164,2D,,True,0.0,,-0.0164,-0.0159
151228,Ac2F14Hf1Ir1,64a31f421c,Ac2HfIrF14,"['F', 'Hf', 'Ir', 'Ac']",18,331.1068,5.4699,1,P1,1,triclinic,-120.2046,-3.6892,-0.1043,3D,0.0011,True,0.0,,-0.1043,-0.0508
151252,Hg2La3O8Pr1,64a6063aa8,La3Pr(HgO4)2,"['O', 'La', 'Pr', 'Hg']",14,249.629,7.2294,m,Cm,8,monoclinic,-101.5818,-2.9858,-0.015,3D,2.2853,True,-0.0,,-0.015,-0.0006
151370,Ag4Au2O8,64bb148430,Ag2AuO4,"['O', 'Ag', 'Au']",14,201.4038,7.8606,2,P2_1,4,monoclinic,-63.6484,-0.4419,-0.0113,3D,0.0003,True,0.0,,-0.0113,-0.0112
151396,Ba8O32Sr2Tc6,64bed5082a,Ba4SrTc3O16,"['O', 'Sr', 'Tc', 'Ba']",48,812.0498,4.8542,3m,P31m,157,trigonal,-359.9394,-2.5148,-0.2864,intercalated ion,0.5148,False,0.0,,-0.2864,-0.2027
151543,Cl3Ho1S24,64dadeabc3,Ho(S8Cl)3,"['S', 'Cl', 'Ho']",28,833.9917,2.0724,3m,R3m,160,trigonal,-130.9969,-0.7712,-0.3894,0D,1.9088,True,0.0,,-0.3894,-0.3785
151550,Nb1O12Ru1Sm5,64dc308211,Sm5NbRuO12,"['O', 'Nb', 'Ru', 'Sm']",19,273.7372,6.9019,2,C2,5,monoclinic,-166.7518,-3.3899,-0.0092,3D,0.7515,True,0.0,,-0.0092,-0.0092
151612,Ba2La2Li2O12W2,64e5eb1729,BaLiLaWO6,"['Li', 'O', 'Ba', 'La', 'W']",20,278.0805,6.724,2,P2_1,4,monoclinic,-162.4979,-2.9839,-0.0044,intercalated ion,3.5604,True,0.0,,-0.0044,-0.0009
151679,O20Rb8Si6Ti2,64f150f964,Rb4TiSi3O10,"['O', 'Si', 'Ti', 'Rb']",36,663.5314,3.1732,1,P1,1,triclinic,-260.7151,-2.9325,-0.005,intercalated ion,,True,0.0,,-0.005,-0.0039
151712,Br6Hf1Li1Na1,64f648c011,NaLiHfBr6,"['Li', 'Na', 'Br', 'Hf']",9,295.0974,3.8706,32,P312,149,trigonal,-39.7703,-1.8622,-0.0352,intercalated ion,3.39,True,0.0,,-0.0352,-0.0133
151795,Br18Cs2Nb3Pb1Ta3,6508318bf4,Cs2Ta3Nb3PbBr18,"['Br', 'Nb', 'Cs', 'Ta', 'Pb']",27,844.238,5.3753,1,P1,1,triclinic,-139.1865,-1.42,-0.0214,intercalated ion,1.1936,True,0.0,,-0.0214,-0.0213
151816,Au9Mg6O18Pt3,650c8cd9db,Mg2Pt(AuO2)3,"['O', 'Mg', 'Pt', 'Au']",36,471.0547,9.8414,32,P3_112,151,trigonal,-199.0101,-1.4793,-0.0583,3D,,False,0.0,,-0.0583,-0.0574
151818,F28Hf4La3Np1,650d46b91e,La3Hf4NpF28,"['F', 'La', 'Hf', 'Np']",36,614.1926,5.1359,1,P1,1,triclinic,-274.6075,-4.2639,-0.0102,3D,,True,0.0,,-0.0102,-0.0096
151827,Ca12Ge1In8O48Ti11,650e4545b5,Ca12Ti11In8GeO48,"['O', 'Ca', 'Ti', 'Ge', 'In']",80,1073.1315,4.281,-4,I-4,82,tetragonal,-624.8486,-3.1224,-0.0047,intercalated ion,,True,0.0,,-0.0047,-0.0047
151829,As1K1O6Te1,650ec2b092,KTeAsO6,"['O', 'K', 'As', 'Te']",9,138.4587,4.049,32,P312,149,trigonal,-54.459,-1.762,-0.0859,intercalated ion,2.7727,True,0.0,,-0.0859,-0.0859
151846,Nb2O24P6Pu2,6510d2b0bc,PuNb(PO4)3,"['O', 'P', 'Nb', 'Pu']",34,561.8768,3.6754,1,P1,1,triclinic,-301.2429,-2.9786,-0.1171,3D,,True,-0.0,,-0.1171,-0.1171
151912,Al1As4Ga3O20Zn4,6519ee95ef,AlZn4Ga3(AsO5)4,"['O', 'Al', 'Zn', 'Ga', 'As']",32,453.5009,4.0917,1,P1,1,triclinic,-200.2334,-2.024,-0.0042,3D,2.5048,False,0.0,,-0.0042,-0.0032
151927,Cl18Tc1W5,651cdb484a,TcW5Cl18,"['Cl', 'Tc', 'W']",24,698.6178,3.9346,m,Cm,8,monoclinic,-138.6584,-1.2597,-0.0187,2D,0.0042,True,0.0,,-0.0187,-0.0156
152019,F30Tm2W1Zr5,652b622c83,Tm2Zr5WF30,"['F', 'Zr', 'Tm', 'W']",38,511.3989,5.0257,2,C2,5,monoclinic,-272.4605,-3.9597,-0.0255,3D,,True,0.0,,-0.0255,-0.0226
152041,Cl10Hg8Ho2S4,652f44fef4,HoHg4S2Cl5,"['S', 'Cl', 'Ho', 'Hg']",24,720.0731,5.5746,2,P2_1,4,monoclinic,-79.1314,-1.3544,-0.0512,3D,2.4704,True,0.0,,-0.0512,-0.0252
152043,Ba3Gd2Lu2O9,652f7bab92,Ba3Gd2Lu2O9,"['O', 'Ba', 'Gd', 'Lu']",16,275.148,7.3653,32,R32,155,trigonal,-144.9471,-3.5915,-0.0126,intercalated ion,,False,0.0,,-0.0126,-0.0054
152084,Ba3In1O9Sc1W1,6537b714bf,Ba3ScInWO9,"['O', 'Sc', 'In', 'Ba', 'W']",15,222.4442,6.7154,3m,P3m1,156,trigonal,-116.8136,-2.9655,-0.0337,intercalated ion,,True,0.0,,-0.0337,-0.0337
152108,Mg1Nb1O9Ru1Sr3,653c00a941,Sr3MgNbRuO9,"['O', 'Mg', 'Sr', 'Nb', 'Ru']",15,195.6906,5.3046,3m,P3m1,156,trigonal,-113.4868,-2.8607,-0.0166,intercalated ion,0.3294,True,0.0,,-0.0166,-0.0135
152118,Bi1Ce1O18P6,653d662f7c,CeBi(PO3)6,"['O', 'P', 'Ce', 'Bi']",26,364.3028,3.751,2,C2,5,monoclinic,-202.5536,-2.738,-0.0069,3D,0.0857,True,0.0,,-0.0069,-0.0005
152163,Gd3O14Pr2Ru2Y1,65459f903a,Pr2Gd3Y(RuO7)2,"['O', 'Y', 'Ru', 'Pr', 'Gd']",22,301.7519,6.9811,m,Pm,6,monoclinic,-214.9316,-3.1298,-0.0183,3D,0.1724,True,0.0,,-0.0183,-0.0114
152210,Ir2O12Rh2Zn2,654f407842,ZnIrRhO6,"['O', 'Zn', 'Rh', 'Ir']",18,197.4483,7.6788,4mm,P4_2nm,102,tetragonal,-117.4507,-1.2861,-0.0446,3D,0.0143,True,0.0,,-0.0446,-0.012
152224,Br12Ho3P2Tb5,65519b75d5,Tb5Ho3(PBr6)2,"['P', 'Br', 'Tb', 'Ho']",22,732.0132,5.2406,m,Pm,6,monoclinic,-112.4915,-2.0501,-0.1174,3D,0.0529,False,0.0,,-0.1174,-0.0147
152230,Ag3Bi1O16Te4,6552e0f0ee,Ag3Bi(TeO4)4,"['O', 'Ag', 'Te', 'Bi']",24,344.234,6.2661,2,P2,3,monoclinic,-133.2129,-1.2119,-0.0219,3D,0.0036,False,0.0,,-0.0219,-0.0212
152281,Cl2La7Lu1Pr2Sn6,655d5649ff,La7Pr2Lu(Sn3Cl)2,"['Cl', 'Sn', 'La', 'Pr', 'Lu']",18,546.6226,6.7205,32,P312,149,trigonal,-96.1437,-1.0975,-0.0181,3D,0.0017,True,0.0,,-0.0181,-0.0173
152289,O24Pm4Pu3Ta3,655ea5a4d1,Pm4Pu3Ta3O24,"['O', 'Pm', 'Ta', 'Pu']",34,519.4625,7.1567,1,P1,1,triclinic,-326.6174,-3.2496,-0.1246,3D,,True,0.0,,-0.1246,-0.1227
152309,Br8Ce1O24Zr1,65621a752d,CeZr(BrO3)8,"['O', 'Br', 'Zr', 'Ce']",34,580.816,3.5868,4,P4,75,tetragonal,-176.3576,-0.8832,-0.0828,2D,,True,-0.0,,-0.0828,-0.0794
152334,Cl18Re1Tc5,6567666120,ReTc5Cl18,"['Cl', 'Tc', 'Re']",24,688.2769,3.171,m,Cm,8,monoclinic,-125.5886,-1.1695,-0.0069,2D,0.6898,True,0.0,,-0.0069,-0.0014
152366,Br20Ce1In8La3,656d9fe69f,La3Ce(In2Br5)4,"['Br', 'In', 'La', 'Ce']",32,1096.2411,4.6555,m,Pm,6,monoclinic,-129.1969,-1.6782,-0.0168,intercalated ion,0.2269,True,0.0,,-0.0168,-0.0131
152402,As2Ir1O2Pr2Ru1,6574c3ef6d,Pr2As2IrRuO2,"['O', 'As', 'Ru', 'Pr', 'Ir']",8,144.5845,8.6934,-42m,P-4m2,115,tetragonal,-62.991,-2.0128,-0.0783,3D,0.0116,True,0.0,,-0.0783,-0.0335
152413,Ac1Br35,657660f69a,AcBr35,"['Br', 'Ac']",36,1931.6333,2.5993,1,P1,1,triclinic,-86.3928,-0.6939,-0.4166,0D,,True,0.0,,-0.4166,-0.4165
152426,Ga11O17Rb1,6578c383a4,RbGa11O17,"['O', 'Ga', 'Rb']",29,364.4012,5.1238,3m,R3m,160,trigonal,-184.0235,-2.2627,-0.0232,intercalated ion,,True,0.0,,-0.0232,-0.0107
152440,Br5I1Li1U1,657af5983c,LiUIBr5,"['Li', 'Br', 'I', 'U']",8,336.8028,3.8032,1,P1,1,triclinic,-36.1095,-1.6501,-0.0139,intercalated ion,0.652,True,0.0,,-0.0139,-0.0115
152453,Ag1Au4Bi1O8,657e5944cb,AgBi(AuO2)4,"['O', 'Ag', 'Au', 'Bi']",14,196.052,10.4409,-4,I-4,82,tetragonal,-69.6511,-0.7321,-0.0432,3D,0.7206,True,0.0,,-0.0432,-0.0432
152503,Ir1La5O12Pr1,6587504121,La5PrIrO12,"['O', 'La', 'Pr', 'Ir']",19,306.9012,6.5991,1,P1,1,triclinic,-161.0061,-3.3332,-0.0399,3D,0.5947,False,0.0,,-0.0399,-0.0369
152579,Lu5O12Re1Ru1,65972cdfa8,Lu5ReRuO12,"['O', 'Ru', 'Lu', 'Re']",19,238.8611,9.4136,2,C2,5,monoclinic,-167.2967,-3.3472,-0.0112,3D,0.6337,True,0.0,,-0.0112,-0.0108
152582,As12Cu4O4Sm7Y1,6597e1d39d,Sm7YCu4(As3O)4,"['O', 'Cu', 'As', 'Y', 'Sm']",28,548.5507,7.14,m,Pm,6,monoclinic,-174.8696,-1.5455,-0.0314,3D,0.0134,True,0.0,,-0.0314,-0.0001
152607,Bi6O20Pr2Se4,659b79c80c,PrBi3(SeO5)2,"['O', 'Se', 'Pr', 'Bi']",32,542.741,6.6439,mm2,Aem2,39,orthorhombic,-207.4161,-1.9241,-0.0136,2D,3.2873,True,0.0,,-0.0136,-0.0116
152613,Ga1O2P1Zr6,659c57e101,Zr6GaPO2,"['O', 'P', 'Ga', 'Zr']",10,167.3462,6.7479,mm2,Amm2,38,orthorhombic,-86.3312,-1.6708,-0.0357,3D,0.0052,True,0.0,,-0.0357,-0.0148
152614,Ga1O16Ru3Sr8,659c8881e4,Sr8GaRu3O16,"['O', 'Ga', 'Sr', 'Ru']",28,395.9662,5.577,-4,I-4,82,tetragonal,-195.289,-2.5627,-0.005,intercalated ion,0.0001,True,0.0,,-0.005,-0.0023
152631,O20P4Sm1U3,659eafb8de,SmU3(PO5)4,"['O', 'P', 'Sm', 'U']",28,428.2513,5.073,1,P1,1,triclinic,-250.2018,-3.2499,-0.0213,3D,0.6699,True,-0.0,,-0.0213,-0.0213
152638,Ga2O12Pt2Rh2,659fde4c09,GaPtRhO6,"['O', 'Ga', 'Rh', 'Pt']",18,194.9194,7.9008,4mm,P4_2nm,102,tetragonal,-116.904,-1.3668,-0.0207,3D,0.0004,True,0.0,,-0.0207,-0.0199
152664,Ac2Br1Cl3H2,65a49e8e6a,Ac2H2BrCl3,"['H', 'Cl', 'Br', 'Ac']",8,224.9576,4.741,3m,P3m1,156,trigonal,-39.2206,-2.1263,-0.0166,2D,4.5615,True,0.0,,-0.0166,-0.0166
152703,Br6Ca1Ce1,65ace95f61,CaCeBr6,"['Ca', 'Br', 'Ce']",8,317.3519,3.4514,2,C2,5,monoclinic,-35.1853,-2.1781,-0.1452,intercalated ion,1.3057,True,0.0,,-0.1452,-0.0214
152705,F28Ge4Sm3Tb1,65ad2d3b4f,TbSm3Ge4F28,"['F', 'Ge', 'Sm', 'Tb']",36,509.4218,4.6695,1,P1,1,triclinic,-217.3411,-3.5265,-0.042,3D,,True,0.0,,-0.042,-0.042
152775,Ba4Ir5O19Os1,65b85123e7,Ba4Ir5OsO19,"['O', 'Ba', 'Os', 'Ir']",29,437.7669,7.6039,2,C2,5,monoclinic,-212.5065,-1.9103,-0.0257,intercalated ion,0.0024,True,0.0,,-0.0257,-0.0243
152823,F28Ir2Pr4Rh2,65bf409a61,Pr2IrRhF14,"['F', 'Rh', 'Pr', 'Ir']",36,573.6357,4.8801,2,P2_1,4,monoclinic,-212.2165,-2.9768,-0.0143,3D,,True,0.0,,-0.0143,-0.0116
152915,Br16Ir2Sc12Tc1,65cfb8b71c,Sc12Tc(IrBr8)2,"['Sc', 'Br', 'Tc', 'Ir']",31,1073.7522,3.5575,1,P1,1,triclinic,-183.0371,-1.7038,-0.0402,intercalated ion,inf,True,0.0,,-0.0402,-0.0073
152921,O16Pd3Sn1Zn8,65d0ef99bf,Zn8SnPd3O16,"['O', 'Zn', 'Pd', 'Sn']",28,326.5724,6.1893,2,P2,3,monoclinic,-151.4034,-1.5217,-0.0382,3D,1.2227,True,0.0,,-0.0382,-0.0158
152936,Ba10F2O18Pt4,65d35b8933,Ba5Pt2O9F,"['O', 'F', 'Ba', 'Pt']",34,584.5438,7.0439,mm2,Cmc2_1,36,orthorhombic,-217.9211,-2.3989,-0.035,intercalated ion,inf,False,-0.0,,-0.035,-0.0135
152947,Ca9F1La1Si6,65d55b8602,Ca9LaSi6F,"['F', 'Si', 'Ca', 'La']",17,434.4908,2.626,m,Cm,8,monoclinic,-71.7838,-0.8432,-0.0168,intercalated ion,0.0126,True,0.0,,-0.0168,-0.0166
152970,F18Li6O9Ru6,65d88309c7,Li2Ru2(OF2)3,"['Li', 'O', 'F', 'Ru']",39,546.9199,3.4431,32,P3_121,152,trigonal,-233.5988,-2.2451,-0.0388,intercalated ion,0.0111,True,0.0,,-0.0388,-0.0324
153005,F22N2,65df3fc3c9,NF11,"['N', 'F']",24,391.1031,1.8935,3m,R3c,161,trigonal,-72.6244,-0.5791,-0.4955,intercalated ion,2.158,True,0.0,,-0.4955,-0.313
153009,F30Hf6In1V1,65df757f58,Hf6VInF30,"['F', 'V', 'In', 'Hf']",38,471.289,6.3656,32,R32,155,trigonal,-277.1059,-3.8995,-0.0037,3D,2.6393,True,0.0,,-0.0037,-0.0037
153044,Ho1O12Re1Ru1Tm4,65e43598e4,HoTm4ReRuO12,"['O', 'Ru', 'Ho', 'Tm', 'Re']",19,245.1523,8.9406,1,P1,1,triclinic,-166.9361,-3.3345,-0.0236,3D,0.6544,True,0.0,,-0.0236,-0.0235
153125,O12Sb1Ta1V4,65f71ba2ea,TaV4SbO12,"['O', 'V', 'Sb', 'Ta']",18,199.7525,5.8063,mm2,Cmm2,35,orthorhombic,-158.3802,-2.5935,-0.0073,3D,0.8899,True,-0.0,,-0.0073,-0.0071
153129,Br12La1Na1Pr5Pt1,65f774d7d9,NaLaPr5PtBr12,"['Na', 'Br', 'La', 'Pr', 'Pt']",20,749.4539,4.4765,1,P1,1,triclinic,-97.1327,-2.0628,-0.0116,intercalated ion,0.0296,False,0.0,,-0.0116,-0.0095
153133,Ca8F2Sn6Y2,65f8a0b679,Ca4YSn3F,"['F', 'Ca', 'Y', 'Sn']",18,495.0722,4.1883,1,P1,1,triclinic,-80.057,-1.2888,-0.0139,intercalated ion,0.1381,True,0.0,,-0.0139,-0.0139
153175,B4Cl1I4La4,65fe7c88d5,La4B4I4Cl,"['B', 'Cl', 'I', 'La']",13,417.1414,4.5458,m,Cm,8,monoclinic,-72.3292,-1.3787,-0.0042,3D,0.0296,False,0.0,,-0.0042,-0.0001
153200,Br4S3,66027c0603,S3Br4,"['S', 'Br']",7,287.7745,2.3993,1,P1,1,triclinic,-22.5285,-0.5102,-0.2423,1D,1.4983,True,0.0,,-0.2423,-0.1641
153207,F24Mo4Na4Sr4,6602dce00e,NaSrMoF6,"['F', 'Na', 'Sr', 'Mo']",36,587.4685,3.6242,222,P2_12_12_1,19,orthorhombic,-220.978,-3.3242,-0.0308,intercalated ion,4.2473,True,0.0,,-0.0308,-0.0298
153222,F14Lu2W2,660579030f,LuWF7,"['F', 'Lu', 'W']",18,268.8429,6.0753,2,P2_1,4,monoclinic,-125.5682,-3.5472,-0.1081,3D,3.6713,True,0.0,,-0.1081,-0.0712
153235,C3Na2O9Pb2,660765a9b0,Na2Pb2(CO3)3,"['C', 'O', 'Na', 'Pb']",16,236.1247,4.5036,mm2,Amm2,38,orthorhombic,-113.0033,-1.9201,-0.0086,intercalated ion,3.652,True,0.0,,-0.0086,-0.0086
153239,Br12La2Na1Pr4Ru1,6607f71718,NaLa2Pr4RuBr12,"['Na', 'Br', 'Ru', 'La', 'Pr']",20,749.7664,4.2619,1,P1,1,triclinic,-99.2896,-2.0027,-0.011,intercalated ion,0.199,True,-0.0,,-0.011,-0.011