Unnamed: 0,Composition,MaterialId,Reduced Formula,Elements,NSites,Volume,Density,Point Group,Space Group,Space Group Number,Crystal System,Corrected Energy,Formation Energy Per Atom,Decomposition Energy Per Atom,Dimensionality Cheon,Bandgap,Is Train,Decomposition Energy Per Atom All,Decomposition Energy Per Atom Relative,Decomposition Energy Per Atom MP,Decomposition Energy Per Atom MP OQMD
156551,F28Np3Pr1Zr4,682ef45097,PrZr4Np3F28,"['F', 'Zr', 'Pr', 'Np']",36,622.1279,4.6677,1,P1,1,triclinic,-275.9917,-4.0182,-0.0267,3D,,True,0.0,,-0.0267,-0.026
156605,Nb1O24P6Sb1Zr2,6837a7b595,Zr2NbSb(PO4)6,"['O', 'P', 'Zr', 'Nb', 'Sb']",34,514.2134,3.1225,1,P1,1,triclinic,-281.3452,-2.9055,-0.0092,intercalated ion,3.0212,True,0.0,,-0.0092,-0.0028
156614,C8Cl12Ho3Lu13,68392e1fd0,Ho3Lu13(C2Cl3)4,"['C', 'Cl', 'Ho', 'Lu']",36,707.8074,7.7205,m,Pm,6,monoclinic,-225.6148,-1.5861,-0.0176,3D,,True,0.0,,-0.0176,-0.0059
156659,Ag4F28Ru3Ta1,68408bc780,TaAg4Ru3F28,"['F', 'Ru', 'Ag', 'Ta']",36,591.7552,4.0621,1,P1,1,triclinic,-180.9052,-2.1215,-0.0035,2D,0.0135,True,0.0,,-0.0035,-0.0035
156705,Ac1Bi3O14Tb4,68486f7612,AcTb4Bi3O14,"['O', 'Tb', 'Bi', 'Ac']",22,326.639,8.7116,1,P1,1,triclinic,-167.9684,-2.9258,-0.0926,3D,,True,0.0,,-0.0926,-0.0613
156735,Ho1O14Pr2Ta2Tm3,684f884b5a,Pr2HoTm3Ta2O14,"['O', 'Pr', 'Ho', 'Tm', 'Ta']",22,301.3397,8.4831,1,P1,1,triclinic,-205.5704,-3.8642,-0.0192,3D,3.5566,True,0.0,,-0.0192,-0.0121
156749,F24Mo2Np2,6851c92753,NpMoF12,"['F', 'Mo', 'Np']",28,517.6068,3.599,mm2,Pmn2_1,31,orthorhombic,-178.3274,-3.0309,-0.0012,0D,1.1684,True,0.0,,-0.0012,-0.0004
156756,Na2O14P4Rb6,685276e039,Rb3NaP2O7,"['O', 'Na', 'P', 'Rb']",26,432.7592,3.479,222,C222_1,20,orthorhombic,-166.9105,-2.5942,-0.0164,intercalated ion,4.6264,True,0.0,,-0.0164,-0.0043
156801,Au4Br24La3Th1,685966e248,La3Th(AuBr6)4,"['Br', 'La', 'Au', 'Th']",32,1202.1873,4.6332,1,P1,1,triclinic,-123.4665,-1.527,-0.022,3D,,True,0.0,,-0.022,-0.022
156834,F4Pm4S4Te4,685f36628b,PmTeSF,"['F', 'S', 'Te', 'Pm']",16,364.1125,5.9043,mm2,Aem2,39,orthorhombic,-94.934,-2.4479,-0.0748,2D,0.02,True,0.0,,-0.0748,-0.0748
156876,Cl26P4Sb2,68654f5a84,SbP2Cl13,"['P', 'Cl', 'Sb']",32,1077.4983,1.9868,mm2,Cmc2_1,36,orthorhombic,-115.8851,-1.1847,-0.0382,0D,1.9207,True,0.0,,-0.0382,-0.0328
156973,Ca8O16Ti3V1,6875c87e32,Ca8Ti3VO16,"['O', 'Ca', 'Ti', 'V']",28,425.1827,3.0117,m,Pm,6,monoclinic,-223.6393,-3.4163,-0.0416,intercalated ion,1.6689,True,0.0,,-0.0416,-0.0411
156984,Ac2F14Hf2,68785d89e3,AcHfF7,"['F', 'Hf', 'Ac']",18,335.919,5.3237,2,P2_1,4,monoclinic,-133.3777,-4.3589,-0.1036,3D,7.0183,True,0.0,,-0.1036,-0.0501
157024,Cl2Sn5Tl1Y10,687eefcce6,Y10TlSn5Cl2,"['Cl', 'Y', 'Sn', 'Tl']",18,476.0699,6.1316,mm2,Amm2,38,orthorhombic,-109.4284,-1.0365,-0.0185,3D,,True,0.0,,-0.0185,-0.0175
157049,B2C2Cl12Tb11Y1,688375e4d4,Tb11YB2(CCl6)2,"['B', 'C', 'Cl', 'Y', 'Tb']",28,639.8663,5.99,2,C2,5,monoclinic,-161.8339,-1.7998,-0.0779,3D,0.01,True,0.0,,-0.0779,-0.0151
157096,F28Pr1Tm3Zr4,688bc247fd,PrTm3Zr4F28,"['F', 'Zr', 'Pr', 'Tm']",36,567.7031,4.5179,1,P1,1,triclinic,-258.4106,-4.2358,-0.0028,3D,5.9646,True,0.0,,-0.0028,-0.0019
157100,Br18Cs1Ho1Ta6,688c765530,CsHo(TaBr3)6,"['Br', 'Cs', 'Ho', 'Ta']",26,802.4562,5.8392,3,R3,146,trigonal,-145.1372,-1.5018,-0.0067,intercalated ion,1.4619,False,-0.0,,-0.0067,-0.0031
157121,As1Ba12Br8Ge3,68908e9509,Ba12Ge3AsBr8,"['Ge', 'As', 'Br', 'Ba']",24,956.5508,4.4788,2,C2,5,monoclinic,-93.6096,-1.6363,-0.0348,intercalated ion,,False,0.0,,-0.0348,-0.0105
157150,Br18Cs3Rb3Ti3V1,6894c48fbe,Cs3Rb3Ti3VBr18,"['Ti', 'V', 'Br', 'Rb', 'Cs']",28,985.4207,3.8554,3m,P3m1,156,trigonal,-118.5802,-1.8113,-0.0392,intercalated ion,0.0006,True,0.0,,-0.0392,-0.0131
157165,Cl30Nb2Pu4,689727a495,Pu2NbCl15,"['Cl', 'Nb', 'Pu']",36,1594.1254,2.3181,1,P1,1,triclinic,-201.0165,-1.8968,-0.2537,0D,inf,False,-0.0,,-0.2537,-0.1175
157206,Na16O32W8,689e6e134d,Na2WO4,"['O', 'Na', 'W']",56,757.6176,5.1519,mm2,Pnn2,34,orthorhombic,-407.8766,-2.2258,-0.0062,intercalated ion,4.0952,True,0.0,,-0.0062,-0.0058
157213,Ce1Na4Np1O6,689fa4304f,Na4CeNpO6,"['O', 'Na', 'Ce', 'Np']",12,178.7557,5.2492,2,C2,5,monoclinic,-87.0865,-2.7675,-0.0352,2D,,True,0.0,,-0.0352,-0.0216
157278,Ba3Eu1Nb1O9Ta1,68aa852809,Ba3EuTaNbO9,"['O', 'Nb', 'Ba', 'Eu', 'Ta']",15,235.7746,6.9147,3m,P3m1,156,trigonal,-132.599,-3.3373,-0.0255,3D,0.0247,True,0.0,,-0.0255,-0.0175
157333,Al1O24S6Tl3,68b318b9d3,AlTl3(SO4)6,"['O', 'Al', 'S', 'Tl']",34,515.3667,3.9197,3,R3,146,trigonal,-215.3445,-1.7925,-0.0529,3D,,True,0.0,,-0.0529,-0.0523
157405,Bi2F28Rh4Sm2,68bf70699e,SmBiRh2F14,"['F', 'Rh', 'Sm', 'Bi']",36,548.461,5.0327,2,P2_1,4,monoclinic,-194.1493,-2.6098,-0.0356,3D,0.0003,True,0.0,,-0.0356,-0.0328
157441,F11Hf2Mg1Na1,68c49a9b49,NaHf2MgF11,"['F', 'Na', 'Mg', 'Hf']",15,214.449,4.7486,m,Cm,8,monoclinic,-103.6005,-3.9825,-0.0405,intercalated ion,6.9952,False,0.0,,-0.0405,-0.0028
157459,Br4Hg1O12Sr1,68c7e27f44,SrHg(BrO3)4,"['O', 'Br', 'Sr', 'Hg']",18,295.8535,4.4891,1,P1,1,triclinic,-81.5716,-0.7586,-0.045,intercalated ion,2.6362,True,0.0,,-0.045,-0.0401
157525,Cl1H3S1,68d22b35a7,H3SCl,"['H', 'S', 'Cl']",5,94.5128,1.2394,1,P1,1,triclinic,-18.8261,-0.5326,-0.0162,0D,4.7713,True,0.0,,-0.0162,-0.015
157541,In1Na1O7V2,68d43b4886,NaV2InO7,"['O', 'Na', 'V', 'In']",11,160.9438,3.6285,2,C2,5,monoclinic,-82.1811,-2.3003,-0.0086,intercalated ion,inf,True,0.0,,-0.0086,-0.0086
157544,F28Ho4Ti1V3,68d4e51a0b,Ho4TiV3F28,"['F', 'Ti', 'V', 'Ho']",36,500.6923,4.6178,1,P1,1,triclinic,-243.3417,-3.7873,-0.0374,3D,,True,0.0,,-0.0374,-0.0369
157557,F12Pr3Tb1,68d68e5091,TbPr3F12,"['F', 'Pr', 'Tb']",16,219.9063,6.1136,m,Pm,6,monoclinic,-112.7666,-4.4282,-0.0024,3D,7.5264,False,0.0,,-0.0024,-0.0024
157661,La1O20Pr7V4,68e7e75eef,LaPr7V4O20,"['O', 'V', 'La', 'Pr']",32,493.5804,5.5477,m,Pm,6,monoclinic,-281.6344,-3.373,-0.0047,3D,1.7564,True,0.0,,-0.0047,-0.0047
157729,As2Cs2O7Sr1,68f22bb9a5,Cs2SrAs2O7,"['O', 'As', 'Sr', 'Cs']",12,243.0525,4.2035,m,Cm,8,monoclinic,-74.4979,-2.2553,-0.034,intercalated ion,3.4765,True,0.0,,-0.034,-0.034
157761,F30Hf5Lu2Sn1,68f84bd103,Lu2Hf5SnF30,"['F', 'Sn', 'Lu', 'Hf']",38,492.8362,6.5064,2,C2,5,monoclinic,-274.0936,-4.0503,-0.009,3D,,False,0.0,,-0.009,-0.0089
157775,Cu4F24Li2Na6,68fabd9b21,Na3LiCu2F12,"['Li', 'F', 'Na', 'Cu']",36,483.1101,2.9627,-42m,P-42_1c,114,tetragonal,-153.8021,-2.216,-0.0735,intercalated ion,0.1455,True,0.0,,-0.0735,-0.0557
157853,Bi7In1O22Ru4,6908f0c7e1,InBi7(Ru2O11)2,"['O', 'Ru', 'In', 'Bi']",34,476.4306,8.1347,1,P1,1,triclinic,-229.8965,-1.5871,-0.0172,3D,,True,0.0,,-0.0172,-0.0172
157872,Al3Ca4Ga1La4O16,690bcecb7c,Ca4La4Al3GaO16,"['O', 'Al', 'Ca', 'Ga', 'La']",28,431.8484,4.3166,m,Pm,6,monoclinic,-219.7107,-3.5183,-0.0123,intercalated ion,,True,-0.0,,-0.0123,-0.0058
157932,La6O24Pr2Te2W2,69163fa0d0,La3PrTeWO12,"['O', 'Te', 'La', 'Pr', 'W']",36,550.1389,6.4054,2,P2_1,4,monoclinic,-303.1131,-3.1384,-0.0028,3D,3.3569,True,0.0,,-0.0028,-0.0027
157949,Ba2Ho3O20Si6Tb1,6918be0f02,Ba2TbHo3(Si3O10)2,"['O', 'Si', 'Ba', 'Tb', 'Ho']",32,446.8438,5.2653,1,P1,1,triclinic,-269.2244,-3.6092,-0.0197,intercalated ion,4.7802,True,0.0,,-0.0197,-0.0056
157995,Ca5Cl2Pb6Tb5,691f20eb03,Ca5Tb5(Pb3Cl)2,"['Cl', 'Ca', 'Tb', 'Pb']",18,518.0577,7.4015,mm2,Amm2,38,orthorhombic,-75.9714,-0.9333,-0.0114,intercalated ion,0.0049,True,0.0,,-0.0114,-0.0113
158041,Gd1Lu5O18Te3,6924e86ed3,GdLu5(TeO6)3,"['O', 'Te', 'Gd', 'Lu']",27,365.1919,7.743,2,C2,5,monoclinic,-217.5501,-3.051,-0.0027,3D,2.9986,True,0.0,,-0.0027,-0.0011
158066,Cu2F1Se2,69285a05cf,Cu2Se2F,"['F', 'Cu', 'Se']",5,103.7775,4.8645,m,Cm,8,monoclinic,-21.2043,-0.8205,-0.0135,3D,,False,-0.0,,-0.0135,-0.0115
158138,Ca1Cd3O8Sn2,69326bafa8,CaCd3(SnO4)2,"['O', 'Ca', 'Cd', 'Sn']",14,187.0636,6.5931,m,Pm,6,monoclinic,-80.538,-2.0115,-0.0002,intercalated ion,1.005,True,0.0,,-0.0002,-0.0002
158164,Br15S1Th5Y1,6935877fde,YTh5SBr15,"['S', 'Br', 'Y', 'Th']",22,770.2768,5.3457,4mm,I4mm,107,tetragonal,-119.0796,-2.1297,-0.037,3D,1.0876,False,0.0,,-0.037,-0.0244
158230,Hf1Nb2O24P6Zr1,6941cf2c14,HfZrNb2(PO4)6,"['O', 'P', 'Zr', 'Nb', 'Hf']",34,518.0693,3.2865,1,P1,1,triclinic,-294.4148,-3.0728,-0.0163,intercalated ion,2.9117,False,0.0,,-0.0163,-0.0024
158256,Bi1F30Np7,69463486e7,Np7BiF30,"['F', 'Bi', 'Np']",38,622.15,6.5069,2,C2,5,monoclinic,-294.4801,-3.7529,-0.0147,3D,inf,True,-0.0,,-0.0147,-0.0146
158259,As2B1Br12Ge1Pr12,6946abc442,Pr12GeB(AsBr6)2,"['B', 'Ge', 'As', 'Br', 'Pr']",28,881.064,5.4336,2,C2,5,monoclinic,-146.0261,-1.7283,-0.0332,3D,0.012,False,0.0,,-0.0332,-0.0262
158269,F10Hf1,6947dcc26a,HfF10,"['F', 'Hf']",11,191.588,3.1937,1,P1,1,triclinic,-51.7888,-2.0652,-0.1892,intercalated molecule,,True,0.0,,-0.1892,-0.1892
158295,Cl6N2Pr8Se6,694b9ecfd2,Pr4Se3NCl3,"['N', 'Cl', 'Se', 'Pr']",22,565.1348,5.4116,6mm,P6_3mc,186,hexagonal,-138.1946,-2.3276,-0.0441,3D,2.5436,True,0.0,,-0.0441,-0.0078
158322,Br16Ce3Th1,694f6cd08c,Ce3ThBr16,"['Br', 'Ce', 'Th']",20,711.8056,4.5044,1,P1,1,triclinic,-92.3629,-2.0479,-0.1468,2D,0.5447,True,0.0,,-0.1468,-0.0069
158333,As3Br18Cs6In1,69512fbfa7,Cs6In(AsBr6)3,"['As', 'Br', 'In', 'Cs']",28,1078.5372,3.965,3m,P3m1,156,trigonal,-93.4658,-1.4964,-0.0681,intercalated ion,2.1597,True,0.0,,-0.0681,-0.0204
158350,Np2O14P4,69550242ce,NpP2O7,"['O', 'P', 'Np']",20,335.9966,4.0619,2,P2_1,4,monoclinic,-176.6771,-2.9928,-0.2046,3D,0.002,True,0.0,,-0.2046,-0.2046
158425,Cu2La1O8Pd2Pr1,69633d1a42,LaPrCu2(PdO4)2,"['O', 'Cu', 'Pd', 'La', 'Pr']",14,178.6991,6.9483,2,C2,5,monoclinic,-95.9448,-2.0061,-0.0109,3D,,True,0.0,,-0.0109,-0.0109
158440,Ba2F14Nb1Tc1,6965befe83,Ba2NbTcF14,"['F', 'Nb', 'Tc', 'Ba']",18,274.0273,4.4329,m,Pm,6,monoclinic,-111.7085,-3.3693,-0.0918,intercalated ion,1.3469,True,0.0,,-0.0918,-0.0728
158578,Gd5O14Pr1W2,697a2e9f5c,PrGd5(WO7)2,"['O', 'Pr', 'Gd', 'W']",22,311.4086,8.0989,2,C2,5,monoclinic,-246.444,-3.4589,-0.0571,3D,0.8411,True,0.0,,-0.0571,-0.0504
158629,Gd6Hf4O20Y2,69826c1404,Gd3YHf2O10,"['O', 'Y', 'Gd', 'Hf']",32,457.312,7.8259,m,Pm,6,monoclinic,-364.3661,-4.0059,-0.0246,3D,0.884,True,0.0,,-0.0246,-0.0243
158638,Au4Cl24Eu1Th3,69838f6c1c,EuTh3(AuCl6)4,"['Cl', 'Eu', 'Au', 'Th']",32,965.7186,4.276,1,P1,1,triclinic,-148.4209,-1.8258,-0.0179,3D,,True,0.0,,-0.0179,-0.0092
158642,O24P6Pu2U2,6985903629,PuU(PO4)3,"['O', 'P', 'U', 'Pu']",34,562.6653,4.5268,1,P1,1,triclinic,-308.628,-3.1258,-0.1295,3D,,True,0.0,,-0.1295,-0.1295
158649,Al4Gd4O24W4,6986829db1,GdAlWO6,"['O', 'Al', 'Gd', 'W']",36,418.1969,7.3707,mm2,Pna2_1,33,orthorhombic,-353.0464,-3.0882,-0.0205,3D,3.2343,True,0.0,,-0.0205,-0.0174
158737,F28Pr4Rh1V3,6995593f86,Pr4V3RhF28,"['F', 'V', 'Rh', 'Pr']",36,564.7239,3.9735,1,P1,1,triclinic,-233.0571,-3.4943,-0.0262,3D,0.0741,False,0.0,,-0.0262,-0.026
158790,Br18Cs6In3Sb1,69a0cc4e1c,Cs6In3SbBr18,"['Br', 'In', 'Sb', 'Cs']",28,1118.1306,4.0126,3m,P3m1,156,trigonal,-92.7092,-1.6246,-0.0449,intercalated ion,2.0346,True,0.0,,-0.0449,-0.0447
158798,O14P4Pb1Sn1,69a22eb573,SnP4PbO14,"['O', 'P', 'Sn', 'Pb']",20,287.7408,3.8884,1,P1,1,triclinic,-146.4635,-2.3908,-0.0073,3D,2.4338,True,0.0,,-0.0073,-0.0062
158801,La4O24Sm4Te4,69a31fc7a8,LaSmTeO6,"['O', 'Te', 'La', 'Sm']",36,537.1028,6.3424,222,P2_12_12_1,19,orthorhombic,-277.6805,-2.9927,-0.0019,3D,3.0628,False,0.0,,-0.0019,-0.0019
158844,As1F12Mg1Nb1,69ab342be5,MgNbAsF12,"['F', 'Mg', 'As', 'Nb']",15,222.3042,3.1381,1,P1,1,triclinic,-85.6396,-3.0894,-0.0242,1D,4.8649,True,0.0,,-0.0242,-0.0241
158906,K4O6Pr1U1,69b55e40f5,K4PrUO6,"['O', 'K', 'Pr', 'U']",12,218.1636,4.8053,2,C2,5,monoclinic,-83.7424,-2.7951,-0.0198,intercalated ion,0.8307,True,0.0,,-0.0198,-0.0198
158942,Eu3La1O16Ta4,69b99bb4ec,LaEu3Ta4O16,"['O', 'La', 'Eu', 'Ta']",24,322.1543,8.1161,1,P1,1,triclinic,-245.8766,-3.4777,-0.0339,3D,,True,0.0,,-0.0339,-0.0033
158987,O4Pd2Rh6Zr16,69c0b4958c,Zr8PdRh3O2,"['O', 'Zr', 'Rh', 'Pd']",28,494.6976,7.9011,mm2,Imm2,44,orthorhombic,-248.2195,-1.3257,-0.0281,3D,,True,-0.0,,-0.0281,-0.0108
159022,Cl1La12Pr8Si15,69c62fe396,La12Pr8Si15Cl,"['Si', 'Cl', 'La', 'Pr']",36,987.9449,5.4641,1,P1,1,triclinic,-207.2162,-0.7364,-0.0106,3D,inf,True,0.0,,-0.0106,-0.0101
159057,Cs2Ga2O8Ti2,69cb198168,CsTiGaO4,"['O', 'Ti', 'Ga', 'Cs']",14,282.9581,3.6912,mm2,Imm2,44,orthorhombic,-102.308,-2.7919,-0.0537,intercalated ion,3.7754,False,0.0,,-0.0537,-0.0348
159059,F30Hf2Lu1Y1Zr4,69cb389a5c,YLuHf2Zr4F30,"['F', 'Y', 'Zr', 'Lu', 'Hf']",38,516.5374,5.0012,2,C2,5,monoclinic,-280.4254,-4.1576,-0.0068,3D,,False,0.0,,-0.0068,-0.0062
159061,Bi3Gd3O14Ta2,69cb5c5fc4,Gd3Ta2Bi3O14,"['O', 'Gd', 'Ta', 'Bi']",22,313.1333,8.9333,1,P1,1,triclinic,-213.6948,-3.034,-0.0121,3D,,True,-0.0,,-0.0121,-0.0103
159069,Cd1Cu4La1O8,69cc655ec9,LaCd(CuO2)4,"['O', 'Cu', 'Cd', 'La']",14,164.5393,6.3933,-4,I-4,82,tetragonal,-83.835,-1.5711,-0.0052,3D,0.0018,True,0.0,,-0.0053,-0.0053
159070,O24P6Sb2V2,69cc75a43b,VSb(PO4)3,"['O', 'P', 'V', 'Sb']",34,459.9604,3.3041,1,P1,1,triclinic,-262.0931,-2.4834,-0.0078,intercalated ion,1.6051,False,0.0,,-0.0078,-0.0078
159119,Cl3Pr1S24,69d7ea51d3,Pr(S8Cl)3,"['S', 'Cl', 'Pr']",28,863.2116,1.956,3m,R3m,160,trigonal,-131.6669,-0.7881,-0.394,0D,2.1444,True,0.0,,-0.394,-0.394
159134,C6Na6O18Sb2,69db4adeb8,Na3Sb(CO3)3,"['C', 'O', 'Na', 'Sb']",32,438.7271,2.8066,mm2,Ama2,40,orthorhombic,-223.9765,-1.98,-0.038,intercalated ion,4.5064,False,0.0,,-0.038,-0.038
159139,Ag4F2O14Te4,69dc082239,Ag2Te2O7F,"['O', 'F', 'Ag', 'Te']",24,348.2556,5.7402,2,P2_1,4,monoclinic,-125.8077,-1.2004,-0.015,3D,0.0034,True,0.0,,-0.015,-0.0149
159152,Ca1Cl12Pb1Pu2,69deddad99,CaPu2PbCl12,"['Cl', 'Ca', 'Pb', 'Pu']",16,494.1625,3.9004,32,P312,149,trigonal,-91.3112,-2.1797,-0.1129,intercalated ion,0.3127,True,0.0,,-0.1129,-0.0133
159155,B4Cl12Tb2Y10,69df8917ea,TbY5(BCl3)2,"['B', 'Cl', 'Y', 'Tb']",28,655.52,4.2445,2,C2,5,monoclinic,-172.6815,-1.7803,-0.0001,3D,0.0108,True,0.0,,-0.0001,-0.0001
159182,Br12La10Si4Sm1Tb1,69e50c32e0,La10TbSm(SiBr3)4,"['Si', 'Br', 'La', 'Sm', 'Tb']",28,916.4464,5.0182,1,P1,1,triclinic,-148.404,-1.7267,-0.0074,3D,0.0192,True,-0.0,,-0.0074,-0.0061
159183,F20Rh1Ru1V2,69e55a13be,V2RuRhF20,"['F', 'V', 'Ru', 'Rh']",24,431.5903,2.6387,1,P1,1,triclinic,-129.0441,-2.3337,-0.0051,1D,0.0054,True,-0.0,,-0.0051,-0.0048
159190,Br1Cl19,69e5f65b8c,BrCl19,"['Cl', 'Br']",20,897.2363,1.3945,1,P1,1,triclinic,-47.9879,-0.5614,-0.5255,0D,,True,0.0,,-0.5255,-0.4185
159219,Ag1F7H4,69eab4bd6a,AgH4F7,"['H', 'F', 'Ag']",12,155.8511,2.6092,1,P1,1,triclinic,-48.9054,-1.5935,-0.0245,intercalated molecule,0.9433,True,0.0,,-0.0245,-0.0086
159235,F28La4Pd3Pt1,69ed0857b0,La4Pd3PtF28,"['F', 'Pd', 'La', 'Pt']",36,589.5155,4.5123,1,P1,1,triclinic,-199.5667,-2.9081,-0.0689,3D,1.4302,True,0.0,,-0.0689,-0.0689
159258,Cl15Se5U11,69f1406234,U11(SeCl3)5,"['Cl', 'Se', 'U']",31,763.7456,7.7074,1,P1,1,triclinic,-232.9914,-2.0509,-0.2573,3D,0.0006,True,0.0,,-0.2573,-0.222
159259,Cl6Ir1Zn1,69f14fb342,ZnIrCl6,"['Cl', 'Zn', 'Ir']",8,209.8644,3.7216,2,C2,5,monoclinic,-30.3576,-1.146,-0.0827,2D,0.0004,True,0.0,,-0.0827,-0.0089
159305,Au2Cu2Lu1O8Tm1,69f8954e01,TmLuCu2(AuO4)2,"['O', 'Cu', 'Tm', 'Lu', 'Au']",14,166.0648,9.9286,2,C2,5,monoclinic,-90.4121,-1.9347,-0.0118,3D,0.2077,True,0.0,,-0.0118,-0.0087
159306,F24Pu1Te3,69f8b05a86,PuTe3F24,"['F', 'Te', 'Pu']",28,498.2772,3.6084,m,Pm,6,monoclinic,-142.1609,-2.5924,-0.1224,0D,0.5004,True,0.0,,-0.1224,-0.1221
159356,Cu2Ge1O24Tc6,6a0087f4d1,Cu2Tc6GeO24,"['O', 'Cu', 'Ge', 'Tc']",33,584.4891,3.3289,3,R3,146,trigonal,-252.0629,-1.7706,-0.0409,3D,,False,0.0,,-0.0409,-0.0289
159361,Np1O10Sb2Zr1,6a0184d29e,ZrNp(SbO5)2,"['O', 'Zr', 'Sb', 'Np']",14,192.5141,6.3116,2,C2,5,monoclinic,-116.0604,-2.6305,-0.0765,3D,0.3908,True,0.0,,-0.0765,-0.0743
159380,Al4Br16Ca1Cd1,6a03f9a81d,CaAl4CdBr16,"['Al', 'Ca', 'Br', 'Cd']",22,828.782,3.0833,2,C2,5,monoclinic,-79.824,-1.6237,-0.0169,intercalated ion,,True,0.0,,-0.0169,-0.0133
159392,O16Sr4Tc1W3,6a06512044,Sr4TcW3O16,"['O', 'Sr', 'Tc', 'W']",24,375.5893,5.5529,2,P2,3,monoclinic,-199.6665,-2.6878,-0.0411,intercalated ion,0.0222,True,0.0,,-0.0411,-0.0411
159433,Ir2Na4O12Sr4,6a0c89e281,Na2Sr2IrO6,"['O', 'Na', 'Sr', 'Ir']",22,313.1866,5.4021,2,C2,5,monoclinic,-137.1175,-2.1826,-0.0757,intercalated ion,0.2074,True,0.0,,-0.0757,-0.0744
159485,Bi6Eu2O20Se4,6a1311ec32,EuBi3(SeO5)2,"['O', 'Se', 'Eu', 'Bi']",32,536.8896,6.7847,mm2,Aem2,39,orthorhombic,-215.3566,-1.8278,-0.0213,2D,,True,0.0,,-0.0213,-0.0115
159521,Ac1Br6La4Pr7Si14,6a1bd70ee0,AcLa4Pr7(Si7Br3)2,"['Si', 'Br', 'La', 'Pr', 'Ac']",32,827.9768,5.2978,mm2,Pmm2,25,orthorhombic,-180.0197,-1.1535,-0.0335,3D,0.0096,False,0.0,,-0.0335,-0.0262
159534,Ba4F24Pr1Th3,6a1d4e4bfc,Ba4PrTh3F24,"['F', 'Ba', 'Pr', 'Th']",32,539.8602,5.6666,1,P1,1,triclinic,-216.3312,-4.2424,-0.0114,intercalated ion,,True,0.0,,-0.0114,-0.0064
159568,Cl8Cu4K2O16S4Tl6,6a23f03e53,KTl3Cu2S2(ClO2)4,"['O', 'S', 'Cl', 'K', 'Cu', 'Tl']",40,807.2699,4.58,m,Pm,6,monoclinic,-206.156,-1.5717,-0.0107,intercalated ion,,True,0.0,,-0.0107,-0.0064
159575,Ga2La7O3Si5Y3Zn1,6a24f30d98,La7Y3ZnGa2Si5O3,"['O', 'Si', 'Zn', 'Ga', 'Y', 'La']",21,462.7395,5.8576,m,Pm,6,monoclinic,-134.085,-1.4689,-0.0299,3D,,True,0.0,,-0.0299,-0.0286
159578,Br18Na5Rb1Th3,6a25561c3a,RbNa5Th3Br18,"['Na', 'Br', 'Rb', 'Th']",27,1049.5425,3.694,1,P1,1,triclinic,-115.1008,-2.0659,-0.0263,intercalated ion,,True,-0.0,,-0.0263,-0.0177
159613,As4Cs4Cu2O14,6a2b424f28,Cs2CuAs2O7,"['O', 'Cu', 'As', 'Cs']",24,514.4201,3.8167,m,Cc,9,monoclinic,-142.4191,-1.7805,-0.0449,intercalated ion,0.49,True,-0.0,,-0.0449,-0.043
159614,Ba3O9Pr1Tm3,6a2b591062,Ba3PrTm3O9,"['O', 'Ba', 'Pr', 'Tm']",16,279.99,7.1387,3,R3,146,trigonal,-125.6548,-3.5724,-0.0026,intercalated ion,3.2489,False,0.0,,-0.0026,-0.0022
159623,As8Bi3O18Pr1,6a2cdaf46b,PrBi3(As4O9)2,"['O', 'As', 'Pr', 'Bi']",30,509.8858,5.3905,1,P1,1,triclinic,-198.6636,-1.8625,-0.0334,3D,3.2552,True,0.0,,-0.0334,-0.0124
159624,Br12La1Si4Sm11,6a2ce45d80,LaSm11(SiBr3)4,"['Si', 'Br', 'La', 'Sm']",28,845.1025,5.6276,2,C2,5,monoclinic,-144.0883,-1.6394,-0.0874,3D,0.0019,True,-0.0,,-0.0874,-0.0647
159627,La4O12Rh2Th1,6a2d2458c7,La4Th(RhO6)2,"['O', 'Rh', 'La', 'Th']",19,290.0817,6.7861,m,Cm,8,monoclinic,-160.9767,-3.1429,-0.0286,3D,,True,0.0,,-0.0286,-0.0286
159753,Ce1N1O1Sb1Th1,6a42fbb5c9,CeThSbNO,"['N', 'O', 'Sb', 'Ce', 'Th']",5,105.17,8.2722,mm2,Imm2,44,orthorhombic,-42.5985,-2.3676,-0.0443,3D,0.1117,True,0.0,,-0.0443,-0.0252
159917,F28Rh3Sb1Y4,6a611c1c36,Y4SbRh3F28,"['F', 'Y', 'Rh', 'Sb']",36,529.5708,4.1329,1,P1,1,triclinic,-217.852,-3.1179,-0.0322,3D,0.0001,True,0.0,,-0.0322,-0.0304
159981,Br16Se8Tc4,6a6aa821c3,Tc(SeBr2)2,"['Se', 'Br', 'Tc']",28,971.2269,3.9361,-4,I-4,82,tetragonal,-119.0926,-0.839,-0.2849,0D,1.6518,True,-0.0,,-0.2849,-0.0853
160023,O12Re1Ru1Tm5,6a722c6141,Tm5ReRuO12,"['O', 'Ru', 'Tm', 'Re']",19,244.3161,8.9984,2,C2,5,monoclinic,-166.9273,-3.3397,-0.0218,3D,0.6334,True,0.0,,-0.0218,-0.0218
160107,F28Ge3Pd1Tb4,6a7f2343dd,Tb4Ge3PdF28,"['F', 'Ge', 'Pd', 'Tb']",36,508.1247,4.8758,1,P1,1,triclinic,-212.112,-3.3699,-0.0466,3D,,False,0.0,,-0.0466,-0.0466
160131,B10Ca1O19Pr2,6a82c8bc17,CaPr2B10O19,"['B', 'O', 'Ca', 'Pr']",32,334.6227,3.6424,2,C2,5,monoclinic,-272.2476,-3.1211,-0.0111,intercalated ion,5.7733,True,0.0,,-0.0111,-0.0056
160153,B4O64S16Tl20,6a8544f2ae,Tl5B(SO4)4,"['B', 'O', 'S', 'Tl']",104,1687.0862,5.5787,4,P4_1,76,tetragonal,-645.3074,-1.8125,-0.0407,intercalated ion,,False,0.0,,-0.0407,-0.0181
160174,In4O18Te3Y2,6a89a05bc8,Y2In4(TeO6)3,"['O', 'Y', 'In', 'Te']",27,364.4217,5.9595,2,C2,5,monoclinic,-182.5672,-2.2272,-0.0098,3D,,True,0.0,,-0.0098,-0.0098
160213,Ce1O8Pm2U1,6a911b149f,CePm2UO8,"['O', 'Ce', 'Pm', 'U']",12,161.9999,8.1606,-42m,I-4m2,119,tetragonal,-112.7096,-3.8667,-0.0815,3D,1.6242,False,0.0,,-0.0815,-0.0815
160224,Cl3S24Tb1,6a9373751b,Tb(S8Cl)3,"['S', 'Cl', 'Tb']",28,804.3096,2.1365,3m,R3m,160,trigonal,-131.1446,-0.7746,-0.3855,0D,1.9383,True,0.0,,-0.3855,-0.3822
160261,Au4O8Pb1Sr1,6a99a34802,SrPb(AuO2)4,"['O', 'Sr', 'Au', 'Pb']",14,208.2603,9.6532,-4,I-4,82,tetragonal,-74.5852,-1.1788,-0.052,intercalated ion,0.7254,True,0.0,,-0.052,-0.0517