Unnamed: 0,Composition,MaterialId,Reduced Formula,Elements,NSites,Volume,Density,Point Group,Space Group,Space Group Number,Crystal System,Corrected Energy,Formation Energy Per Atom,Decomposition Energy Per Atom,Dimensionality Cheon,Bandgap,Is Train,Decomposition Energy Per Atom All,Decomposition Energy Per Atom Relative,Decomposition Energy Per Atom MP,Decomposition Energy Per Atom MP OQMD
83533,Cs2O24P8Rh2,37c523fdbd,CsP4RhO12,"['O', 'P', 'Rh', 'Cs']",36,536.0405,3.4181,2,P2_1,4,monoclinic,-265.3073,-2.4092,-0.0184,intercalated ion,1.9563,True,0.0,,-0.0184,-0.0184
83560,O12Pr5Rh1Sc1,37c9251ad3,Pr5ScRhO12,"['O', 'Sc', 'Rh', 'Pr']",19,291.091,5.9578,2,C2,5,monoclinic,-158.2648,-3.2257,-0.0454,3D,0.0028,True,0.0,,-0.0454,-0.0407
83567,Cs8Nb8O40Si8,37ca900864,CsNbSiO5,"['O', 'Si', 'Nb', 'Cs']",64,1060.811,4.1813,mm2,Ama2,40,orthorhombic,-522.9633,-3.0261,-0.0059,intercalated ion,,False,0.0,,-0.0059,-0.0058
83615,In1O44P12Pb8V3,37d1c961d1,V3InP12(Pb2O11)4,"['O', 'P', 'V', 'In', 'Pb']",68,937.6243,5.3146,1,P1,1,triclinic,-513.0449,-2.5099,-0.0085,3D,,False,0.0,,-0.0085,-0.0065
83622,Eu8O24Te4,37d32b2406,Eu2TeO6,"['O', 'Te', 'Eu']",36,523.3583,6.695,222,P2_12_12_1,19,orthorhombic,-312.1624,-2.7362,-0.3779,3D,inf,True,0.0,,-0.3779,-0.3196
83685,O24S6Tb1Tl3,37dcc2adf4,TbTl3(SO4)6,"['O', 'S', 'Tb', 'Tl']",34,515.3667,4.3448,3,R3,146,trigonal,-218.9805,-1.8733,-0.0528,3D,,True,-0.0,,-0.0528,-0.0522
83708,Br18Nb5Rb1Ta1Y1,37e0f2a9bf,RbYTaNb5Br18,"['Br', 'Rb', 'Y', 'Nb', 'Ta']",26,793.4428,4.7259,1,P1,1,triclinic,-138.5835,-1.5118,-0.0144,intercalated ion,1.1164,True,-0.0,,-0.0144,-0.0144
83777,La3O12Pr3W1,37eb94ffa4,La3Pr3WO12,"['O', 'La', 'Pr', 'W']",19,305.377,6.6082,1,P1,1,triclinic,-169.2037,-3.5642,-0.0099,3D,3.4421,True,-0.0,,-0.0099,-0.0099
83783,F12Ru1Sr1Tc1,37ecd07968,SrTcRuF12,"['F', 'Sr', 'Tc', 'Ru']",15,269.9122,3.1663,1,P1,1,triclinic,-84.0406,-2.6519,-0.0698,intercalated ion,0.0935,False,0.0,,-0.0698,-0.029
83804,F30Pa7Tb1,37f033e774,TbPa7F30,"['F', 'Tb', 'Pa']",38,641.235,6.0755,2,C2,5,monoclinic,-287.0921,-4.1713,-3.7011,3D,0.0002,False,0.0,,-3.7011,-1.0331
83874,Cl1La13Pr7Si15,37fac5645a,La13Pr7Si15Cl,"['Si', 'Cl', 'La', 'Pr']",36,992.5514,5.4353,1,P1,1,triclinic,-207.4075,-0.7374,-0.0111,3D,0.0008,False,0.0,,-0.0111,-0.0106
83934,Hf16O4Pd2Rh6,3807578bfc,Hf8PdRh3O2,"['O', 'Rh', 'Pd', 'Hf']",28,473.5487,13.1501,mm2,Imm2,44,orthorhombic,-272.5725,-1.39,-0.0298,3D,0.0082,True,0.0,,-0.0298,-0.0192
83937,F16O2Rh6,3807eafe7c,Rh3OF8,"['O', 'F', 'Rh']",24,302.685,5.2304,m,Cc,9,monoclinic,-126.8823,-1.759,-0.0179,3D,,True,-0.0,,-0.0179,-0.0174
83960,C2Eu6O18W2,3809f45a3e,Eu3WCO9,"['C', 'O', 'Eu', 'W']",28,379.4599,6.9644,6,P6_3,173,hexagonal,-275.4982,-2.8683,-0.1196,3D,0.0002,False,0.0,,-0.1196,-0.0852
83981,Mg1O2P2Pd1Th2,380cfbc76a,Th2MgP2PdO2,"['O', 'Mg', 'P', 'Pd', 'Th']",8,136.2976,8.3911,-42m,P-4m2,115,tetragonal,-60.7182,-2.2985,-0.0199,3D,0.0369,True,0.0,,-0.0199,-0.0166
84030,Cs12O16P1Ta3,3815aa85dd,Cs12Ta3PO16,"['O', 'P', 'Cs', 'Ta']",32,761.6052,5.2866,m,Pm,6,monoclinic,-211.9302,-2.5322,-0.1208,intercalated ion,,True,0.0,,-0.1208,-0.0025
84034,F37Mg1,3816966114,MgF37,"['F', 'Mg']",38,704.9187,1.7131,1,P1,1,triclinic,-96.9794,-0.6488,-0.3465,0D,,True,0.0,,-0.3465,-0.3244
84080,Br12P2Tb1Y7,381da2c672,TbY7(PBr6)2,"['P', 'Br', 'Y', 'Tb']",22,727.5751,4.1128,m,Pm,6,monoclinic,-125.7205,-2.0614,-0.0803,3D,,True,0.0,,-0.0803,-0.0208
84176,Al12As8H16Na4O48,3831256b1c,NaAl3As2(HO3)4,"['H', 'O', 'Na', 'Al', 'As']",88,887.2857,3.3672,2,P2_1,4,monoclinic,-577.4921,-2.2522,-0.0098,intercalated ion,,True,0.0,,-0.0098,-0.0097
84191,As1Ce2O2P1Rh2,3833b2d8f1,Ce2AsP(RhO)2,"['O', 'P', 'As', 'Rh', 'Ce']",8,132.5711,7.8152,4mm,P4mm,99,tetragonal,-64.0758,-2.1891,-0.05,3D,0.0009,False,0.0,,-0.05,-0.0066
84217,F8S32Sn2,3836985f74,Sn(S4F)4,"['F', 'S', 'Sn']",42,1352.8826,1.7374,mm2,Fdd2,43,orthorhombic,-196.9389,-0.9824,-0.3373,0D,,True,0.0,,-0.3373,-0.3373
84221,Br8Cd1Hg3O24,383710c95e,CdHg3(BrO3)8,"['O', 'Br', 'Cd', 'Hg']",36,643.9045,4.4805,1,P1,1,triclinic,-149.3451,-0.4351,-0.1237,3D,2.788,True,0.0,,-0.1237,-0.1146
84244,Bi1O12Pr5Pt1,383ba26dbd,Pr5BiPtO12,"['O', 'Pr', 'Pt', 'Bi']",19,301.0733,7.1733,2,C2,5,monoclinic,-149.1234,-2.9412,-0.0687,3D,1.2019,True,0.0,,-0.0687,-0.0687
84256,F28Hf1Ho4Nb3,383e84f852,Ho4HfNb3F28,"['F', 'Nb', 'Ho', 'Hf']",36,567.1816,4.8274,1,P1,1,triclinic,-253.5389,-3.9285,-0.0014,3D,,True,0.0,,-0.0014,-0.0011
84313,Bi4Ho1O14Sm1Ta2,3846f31dc1,SmHoTa2(Bi2O7)2,"['O', 'Sm', 'Ho', 'Ta', 'Bi']",22,324.38,8.8924,1,P1,1,triclinic,-179.0704,-2.7828,-0.0064,3D,,True,0.0,,-0.0064,-0.0064
84382,Bi1O2Pm2Sn1,3853e717de,Pm2SnBiO2,"['O', 'Sn', 'Pm', 'Bi']",6,136.1977,7.9211,4mm,P4mm,99,tetragonal,-41.5152,-2.3698,-0.035,3D,0.002,False,0.0,,-0.035,-0.0251
84498,Bi1F34Pu1,386841d7ce,PuBiF34,"['F', 'Bi', 'Pu']",36,718.7234,2.539,1,P1,1,triclinic,-128.8087,-1.2683,-0.3855,0D,,True,-0.0,,-0.3855,-0.3853
84603,Cu5O4Pt3Sc16,3879cc1271,Sc16Cu5Pt3O4,"['O', 'Sc', 'Cu', 'Pt']",28,464.0087,6.0346,m,Cm,8,monoclinic,-198.2917,-1.374,-0.0101,3D,0.0009,True,0.0,,-0.0101,-0.0057
84610,Ga12O48Sc8Tm3Y9,387a22f964,Y9Tm3Sc8(GaO4)12,"['O', 'Sc', 'Ga', 'Y', 'Tm']",80,995.5283,5.4564,2,C2,5,monoclinic,-667.2909,-3.3896,-0.0008,inf,,True,0.0,,-0.0008,-0.0008
84639,F16Pa2Rb6,387fa816c0,Rb3PaF8,"['F', 'Rb', 'Pa']",24,507.8224,4.1817,6mm,P6_3mc,186,hexagonal,-143.3576,-3.6609,-0.0183,intercalated ion,,False,0.0,,-0.0183,-0.0178
84729,Br1Eu2F2Se1,3890527286,Eu2SeBrF2,"['F', 'Se', 'Br', 'Eu']",6,123.8083,6.7167,4mm,P4mm,99,tetragonal,-48.481,-3.1569,-0.1072,3D,0.002,True,0.0,,-0.1072,-0.0707
84750,Nb1O16Os3Pb4,389486d21c,NbOs3(PbO4)4,"['O', 'Nb', 'Os', 'Pb']",24,370.7055,7.8317,1,P1,1,triclinic,-180.2267,-1.7677,-0.0467,3D,0.0013,True,0.0,,-0.0467,-0.0113
84778,Bi3K1O12Zn4,3899a47d7e,KZn4(BiO4)3,"['O', 'K', 'Zn', 'Bi']",20,286.5452,6.4885,3,R3,146,trigonal,-108.6749,-1.574,-0.025,intercalated ion,0.3095,True,0.0,,-0.025,-0.0183
84796,As1B3Cl12Sm12,389c64c0f3,Sm12B3AsCl12,"['B', 'Cl', 'As', 'Sm']",28,721.7814,5.3768,32,R32,155,trigonal,-154.1242,-1.8079,-0.096,3D,0.0023,True,0.0,,-0.096,-0.0469
84903,Au4La1O8Rb1,38b16b5de0,RbLa(AuO2)4,"['O', 'Rb', 'La', 'Au']",14,213.8087,8.8556,-4,I-4,82,tetragonal,-77.5865,-1.3565,-0.041,intercalated ion,,True,0.0,,-0.041,-0.041
84912,As1Cd2O7V1,38b3333d14,VCd2AsO7,"['O', 'V', 'As', 'Cd']",11,161.7104,4.7511,m,Cm,8,monoclinic,-70.9713,-1.8861,-0.0031,3D,2.7329,True,0.0,,-0.0031,-0.0011
84971,Al2Ga2O24Se6,38bb6abb4e,AlGa(SeO4)3,"['O', 'Al', 'Ga', 'Se']",34,474.3918,3.6794,3,R3,146,trigonal,-207.001,-1.5802,-0.0467,3D,2.745,True,0.0,,-0.0467,-0.0456
85035,Ag7C1O11,38c6bdae33,Ag7CO11,"['C', 'O', 'Ag']",19,252.6308,6.1989,3m,R3m,160,trigonal,-95.8221,-0.6495,-0.0235,3D,0.0059,True,-0.0,,-0.0235,-0.0234
85038,Br1I6Nb3S1,38c70d143e,Nb3SI6Br,"['S', 'Br', 'Nb', 'I']",11,367.2661,5.2091,m,Cm,8,monoclinic,-56.059,-0.9852,-0.0043,2D,0.5949,True,0.0,,-0.0043,-0.0007
85068,In4O18Pr2Te3,38cb5943cb,Pr2In4(TeO6)3,"['O', 'In', 'Te', 'Pr']",27,373.8441,6.2713,2,C2,5,monoclinic,-178.2754,-2.1931,-0.0006,3D,1.8516,True,0.0,,-0.0006,-0.0006
85112,Nb5O18Pb3W1,38d32556ac,Nb5Pb3WO18,"['O', 'Nb', 'W', 'Pb']",27,394.2701,6.5616,1,P1,1,triclinic,-234.8272,-2.6356,-0.0058,3D,2.1761,True,0.0,,-0.0058,-0.0008
85134,Mo1Na4O6Pa1,38d70d4101,Na4PaMoO6,"['O', 'Na', 'Mo', 'Pa']",12,161.4971,5.2946,2,C2,5,monoclinic,-86.0996,-2.5635,-0.1034,intercalated ion,2.221,True,0.0,,-0.1034,-0.0767
85146,Br18Cs1Sm1Ta6,38d8beed14,CsSm(TaBr3)6,"['Br', 'Cs', 'Sm', 'Ta']",26,813.0071,5.7337,3,R3,146,trigonal,-145.2943,-1.5026,-0.0156,intercalated ion,1.4588,True,0.0,,-0.0156,-0.0156
85150,Au4Br24Gd3Ho1,38d95b65a2,Gd3Ho(AuBr6)4,"['Br', 'Gd', 'Ho', 'Au']",32,1153.2327,4.8125,1,P1,1,triclinic,-145.42,-1.4427,-0.0159,3D,,True,0.0,,-0.0159,-0.0051
85177,Hg1O18P6Pb1,38dce452f7,HgP6PbO18,"['O', 'P', 'Hg', 'Pb']",26,429.0952,3.4118,32,P312,149,trigonal,-185.0457,-2.2879,-0.0081,3D,1.7931,True,0.0,,-0.0081,-0.0076
85270,Al2Cl4Rb2S2,38ecc473b4,RbAlSCl2,"['Al', 'S', 'Cl', 'Rb']",10,318.8017,2.2441,2,P2_1,4,monoclinic,-44.5986,-1.9479,-0.0224,intercalated ion,3.9537,True,-0.0,,-0.0224,-0.0149
85310,Br17Cs2La8Os2Pr2,38f3a566c8,Cs2La8Pr2Os2Br17,"['Br', 'Cs', 'La', 'Pr', 'Os']",31,1200.3534,4.7003,1,P1,1,triclinic,-161.4361,-1.9456,-0.0572,intercalated ion,inf,True,0.0,,-0.0572,-0.0568
85311,As4Ba1F24Hg1,38f3c899f9,BaHgAs4F24,"['F', 'As', 'Ba', 'Hg']",30,531.1395,3.4189,-4,I-4,82,tetragonal,-144.0948,-2.5787,-0.0395,intercalated ion,,True,0.0,,-0.0395,-0.0376
85313,Bi4F28Pt1V3,38f40fd73e,V3Bi4PtF28,"['F', 'V', 'Pt', 'Bi']",36,552.1276,5.1603,1,P1,1,triclinic,-201.1858,-2.7439,-0.0378,3D,1.9976,True,0.0,,-0.0378,-0.0376
85327,Ce1O12Pa1Pr5,38f5ca2059,CePr5PaO12,"['O', 'Ce', 'Pr', 'Pa']",19,307.8604,6.8376,1,P1,1,triclinic,-172.9203,-3.9049,-0.0267,3D,,True,0.0,,-0.0267,-0.0184
85467,Ac3Br12Ir1La9Ru3,390c88f61d,Ac3La9Ir(RuBr4)3,"['Br', 'Ru', 'La', 'Ir', 'Ac']",28,959.1328,5.8612,2,C2,5,monoclinic,-158.5643,-1.624,-0.0284,3D,0.0014,True,0.0,,-0.0284,-0.025
85480,Au1Br12Ir1Pr12Pt2,390eb4f467,Pr12IrPt2AuBr12,"['Br', 'Pr', 'Ir', 'Pt', 'Au']",28,928.0161,6.1358,2,C2,5,monoclinic,-148.0462,-1.6706,-0.009,3D,0.004,True,0.0,,-0.009,-0.0057
85507,Br18Cs6Np3Sm1,39122cee1c,Cs6Sm(NpBr6)3,"['Br', 'Cs', 'Sm', 'Np']",28,1171.1975,4.3911,3,R3,146,trigonal,-135.1038,-2.0252,-0.0429,intercalated ion,,False,0.0,,-0.0429,-0.0401
85511,Bi2F28La2Ti4,3912eee86d,LaTi2BiF14,"['F', 'Ti', 'La', 'Bi']",36,563.1821,4.1845,2,P2_1,4,monoclinic,-236.1564,-3.7056,-0.0409,3D,,True,0.0,,-0.0409,-0.0409
85657,F20Ta3W1,392b0542ff,Ta3WF20,"['F', 'Ta', 'W']",24,387.4089,4.7434,2,C2,5,monoclinic,-167.7532,-3.3747,-0.0107,0D,3.6534,True,0.0,,-0.0107,-0.0073
85705,Ac11Br6Si14Tb1,3932a79460,Ac11Tb(Si7Br3)2,"['Si', 'Br', 'Tb', 'Ac']",32,915.1961,6.4022,mm2,Pmm2,25,orthorhombic,-170.5355,-1.0873,-0.2581,3D,0.0045,True,0.0,,-0.2581,-0.2185
85774,Br35C1,393f0ae167,CBr35,"['C', 'Br']",36,1662.5203,2.8053,1,P1,1,triclinic,-83.6874,-0.4769,-0.4467,0D,,False,0.0,,-0.4467,-0.4465
85787,Na6O2Se6Ta2,39413eccfc,Na3TaSe3O,"['O', 'Na', 'Se', 'Ta']",16,411.6679,4.0562,mm2,Cmc2_1,36,orthorhombic,-88.5319,-1.6256,-0.067,intercalated ion,2.5353,True,0.0,,-0.067,-0.0238
85825,Hg16O36P8Sn2V2,3947363954,VSnHg8(P2O9)2,"['O', 'P', 'V', 'Sn', 'Hg']",64,1145.3395,6.3394,mm2,Pmn2_1,31,orthorhombic,-371.5013,-1.8597,-0.0111,2D,,False,0.0,,-0.0111,-0.0109
85843,O18Pa5Pr2Sr3,394a0ea300,Sr3Pr2Pa5O18,"['O', 'Sr', 'Pr', 'Pa']",28,441.5107,7.4764,1,P1,1,triclinic,-262.2378,-3.9632,-0.238,intercalated ion,0.1289,True,0.0,,-0.238,-0.1397
85877,Br15C4Eu1Pr2Sm7,39508f9b28,Pr2Sm7EuC4Br15,"['C', 'Br', 'Pr', 'Sm', 'Eu']",29,880.3641,5.1548,1,P1,1,triclinic,-166.5573,-1.8004,-0.0943,3D,0.3287,True,0.0,,-0.0943,-0.0129
85878,B6Eu4O18Pb2,3950dc5729,Eu2B3PbO9,"['B', 'O', 'Eu', 'Pb']",30,360.4323,6.3352,mm2,Ama2,40,orthorhombic,-263.2937,-2.852,-0.072,3D,0.0005,True,0.0,,-0.072,-0.0389
85902,Na2O26Os10,3954225bcc,NaOs5O13,"['O', 'Na', 'Os']",38,480.9615,8.1627,mm2,Ama2,40,orthorhombic,-301.2284,-1.5174,-0.0428,intercalated ion,0.0036,True,0.0,,-0.0428,-0.0368
85998,Al2Br14Se1Te1,3965215a71,Al2TeSeBr14,"['Al', 'Se', 'Br', 'Te']",18,744.2947,3.077,1,P1,1,triclinic,-57.1003,-1.114,-0.0353,0D,2.1155,True,0.0,,-0.0353,-0.0048
86124,Cu4F20Rb4,39788fee70,RbCuF5,"['F', 'Cu', 'Rb']",28,455.5116,3.558,2,P2_1,4,monoclinic,-114.1618,-1.9862,-0.1336,intercalated ion,0.257,True,0.0,,-0.1336,-0.0178
86127,F28Pd3Pt1Tb3Tm1,3978e9b9f0,Tb3TmPd3PtF28,"['F', 'Pd', 'Tb', 'Tm', 'Pt']",36,519.9647,5.4035,1,P1,1,triclinic,-197.2377,-2.8813,-0.0752,3D,1.3238,True,0.0,,-0.0752,-0.0333
86137,Nb2O14Pr5Sm1,397a1d33e2,Pr5SmNb2O14,"['O', 'Nb', 'Pr', 'Sm']",22,333.5399,6.2964,1,P1,1,triclinic,-197.8984,-3.6273,-0.0024,3D,2.6902,True,0.0,,-0.0024,-0.0024
86151,Ac5Np1O12Pr1,397c8733c0,Ac5PrNpO12,"['O', 'Pr', 'Ac', 'Np']",19,341.3818,8.2929,1,P1,1,triclinic,-169.5127,-3.7791,-0.1928,3D,,False,0.0,,-0.1928,-0.1629
86203,Bi2F12Sr1,3984188052,SrBi2F12,"['F', 'Sr', 'Bi']",15,284.6982,4.2786,1,P1,1,triclinic,-71.5303,-2.6082,-0.0582,intercalated ion,2.5262,True,0.0,,-0.0582,-0.0581
86208,Ba2F12U1Zr1,3984b5f3c2,Ba2ZrUF12,"['F', 'Zr', 'Ba', 'U']",16,266.4428,5.1845,222,C222,21,orthorhombic,-112.3537,-4.1087,-0.0074,intercalated ion,0.0015,True,0.0,,-0.0074,-0.0072
86213,Ce1Gd4O14Pr1Ta2,3985e9d430,CePrGd4Ta2O14,"['O', 'Ce', 'Pr', 'Gd', 'Ta']",22,315.8849,7.8637,1,P1,1,triclinic,-243.7788,-3.8079,-0.0231,3D,,True,0.0,,-0.0232,-0.0149
86240,Ba6Ir3Nb1O18,398c011bbc,Ba6Nb(IrO6)3,"['O', 'Nb', 'Ba', 'Ir']",28,428.7685,6.8994,3,R3,146,trigonal,-203.0111,-2.3506,-0.0762,intercalated ion,0.0026,True,0.0,,-0.0762,-0.0762
86256,Cl12Cu1Pd3,398ebed94d,Cu(PdCl4)3,"['Cl', 'Cu', 'Pd']",16,414.9163,3.2347,2,C2,5,monoclinic,-55.2339,-0.8383,-0.1657,3D,,True,0.0,,-0.1657,-0.0097
86259,Ba1Ga1O1Sb1,398ee92965,BaGaSbO,"['O', 'Ga', 'Sb', 'Ba']",4,107.953,5.3039,3m,P3m1,156,trigonal,-20.6843,-1.6651,-0.0399,intercalated ion,0.8553,True,0.0,,-0.0399,-0.0392
86332,B1Br15C1Pr10,399e5692b7,Pr10BCBr15,"['B', 'C', 'Br', 'Pr']",27,894.3134,4.8842,1,P1,1,triclinic,-138.1446,-1.8472,-0.0202,3D,0.0128,True,0.0,,-0.0202,-0.0154
86383,Bi1F28La3Pt4,39a6eb0919,La3BiPt4F28,"['F', 'La', 'Pt', 'Bi']",36,580.5368,5.5433,1,P1,1,triclinic,-195.7649,-2.7573,-0.0787,3D,2.2753,True,0.0,,-0.0787,-0.0787
86391,Gd2O14Ta2Tb2Y2,39a84a17b3,TbGdYTaO7,"['O', 'Y', 'Gd', 'Tb', 'Ta']",22,301.4453,7.6903,mm2,Ama2,40,orthorhombic,-227.819,-3.8399,-0.0039,3D,2.9935,False,0.0,,-0.0039,-0.0034
86409,Ga1O4Ti12Zn7,39ab5c8b35,Ti12Zn7GaO4,"['O', 'Ti', 'Zn', 'Ga']",24,322.4096,6.0053,3,R3,146,trigonal,-155.0526,-1.1945,-0.0515,3D,0.0011,True,0.0,,-0.0515,-0.0423
86411,Li12O48Pr1Tb11W8,39abf6bd46,Li12Tb11Pr(WO6)8,"['Li', 'O', 'Pr', 'Tb', 'W']",80,955.027,7.3219,222,F222,22,orthorhombic,-660.7964,-3.012,-0.0209,intercalated ion,,True,0.0,,-0.0209,-0.0167
86421,Ca1F7H5,39ace727ed,CaH5F7,"['H', 'F', 'Ca']",13,175.9539,1.6809,1,P1,1,triclinic,-63.1039,-2.3657,-0.0339,intercalated ion,7.3796,True,0.0,,-0.0339,-0.0227
86483,Br18Cs1La1Nb6,39b6392e43,CsLa(NbBr3)6,"['Br', 'Nb', 'Cs', 'La']",26,839.8531,4.4833,3,R3,146,trigonal,-135.9861,-1.5416,-0.0234,intercalated ion,1.1168,True,0.0,,-0.0234,-0.0039
86566,Ca5O12Sb2Tb1,39c4535943,Ca5Tb(SbO6)2,"['O', 'Ca', 'Sb', 'Tb']",20,294.6032,4.4801,1,P1,1,triclinic,-141.3896,-2.9547,-0.0361,intercalated ion,0.0016,False,0.0,,-0.0361,-0.0274
86568,O2Sm4Sn6Y2Zr4,39c5013739,Sm2YZr2Sn3O,"['O', 'Y', 'Zr', 'Sn', 'Sm']",18,413.7286,7.5793,mm2,Ama2,40,orthorhombic,-123.161,-1.2894,-0.0056,3D,0.0022,True,0.0,,-0.0056,-0.0056
86609,Br8Re12S14,39cac63612,Re6S7Br4,"['S', 'Br', 'Re']",34,937.6307,5.8844,3m,R3c,161,trigonal,-251.0508,-0.9033,-0.0604,3D,,True,0.0,,-0.0604,-0.0295
86612,Br18Ho1Rb1Ta6,39cae85f62,RbHo(TaBr3)6,"['Br', 'Rb', 'Ho', 'Ta']",26,782.0881,5.8905,3,R3,146,trigonal,-145.0455,-1.495,-0.0183,intercalated ion,1.4464,True,0.0,,-0.0183,-0.0074
86656,Cl8Re12Se14,39d28e6ab6,Re6Se7Cl4,"['Cl', 'Se', 'Re']",34,954.9401,6.301,3m,R3c,161,trigonal,-243.3678,-0.8912,-0.0945,3D,1.8222,True,0.0,,-0.0945,-0.0224
86677,Au1Gd3Ho3O12,39d4fcca44,Gd3Ho3AuO12,"['O', 'Gd', 'Ho', 'Au']",19,266.1741,8.4563,1,P1,1,triclinic,-180.1066,-3.2359,-0.0168,3D,,True,-0.0,,-0.0168,-0.0111
86683,Br20Gd1La3Rb8,39d66d7205,Rb8La3GdBr20,"['Br', 'Rb', 'La', 'Gd']",32,1197.4139,3.9603,m,Pm,6,monoclinic,-141.699,-2.2572,-0.0097,intercalated ion,1.3644,True,0.0,,-0.0097,-0.0091
86711,Na1O16Pr1Te6,39da27b80b,NaPr(Te3O8)2,"['O', 'Na', 'Te', 'Pr']",24,344.5259,5.7138,2,C2,5,monoclinic,-147.7698,-1.8181,-0.0214,intercalated ion,,True,0.0,,-0.0214,-0.0214
86747,F28Hf3Ru1Tb4,39e1a9232e,Tb4Hf3RuF28,"['F', 'Ru', 'Tb', 'Hf']",36,555.1458,5.3967,1,P1,1,triclinic,-256.196,-4.0275,-0.0124,3D,0.1212,True,-0.0,,-0.0124,-0.01
86769,Br18Cs2Nb1Pb1Ta5,39e59b5acd,Cs2Ta5NbPbBr18,"['Br', 'Nb', 'Cs', 'Ta', 'Pb']",27,842.7121,5.732,1,P1,1,triclinic,-142.5452,-1.4143,-0.0167,intercalated ion,1.2839,True,0.0,,-0.0167,-0.0167
86776,Bi3F28Ho1Pb4,39e6c6795d,HoBi3Pb4F28,"['F', 'Ho', 'Pb', 'Bi']",36,594.7912,6.0097,1,P1,1,triclinic,-181.2843,-2.685,-0.041,3D,,True,0.0,,-0.041,-0.0408
86812,Bi1Br6Ga1O18,39eccf3c56,GaBi(BrO3)6,"['O', 'Ga', 'Br', 'Bi']",26,467.6465,3.7146,3,P3,143,trigonal,-121.3505,-0.598,-0.0963,3D,3.2784,True,0.0,,-0.0963,-0.0724
86850,Ho1O4Se3Sm3,39f14e7c5e,Sm3HoSe3O4,"['O', 'Se', 'Sm', 'Ho']",11,211.0748,7.2132,mm2,Amm2,38,orthorhombic,-83.7959,-3.1617,-0.086,3D,0.9542,False,0.0,,-0.086,-0.0197
86937,Cl30Os4Tc2,39ffb46484,TcOs2Cl15,"['Cl', 'Tc', 'Os']",36,1098.8541,3.0533,1,P1,1,triclinic,-155.8288,-0.9651,-0.1552,0D,,False,0.0,,-0.1552,-0.1539
86938,Ho1O14P4Pa1,39ffc5f2d1,HoPa(P2O7)2,"['O', 'P', 'Ho', 'Pa']",20,330.8802,3.7331,1,P1,1,triclinic,-168.7382,-3.1858,-0.1762,3D,,True,0.0,,-0.1762,-0.1762
86966,F12Pb1Ru1Tc1,3a032a971c,TcRuPbF12,"['F', 'Tc', 'Ru', 'Pb']",15,269.9122,3.902,1,P1,1,triclinic,-81.2966,-2.3341,-0.062,2D,,False,0.0,,-0.062,-0.0378
86987,Cu4Gd1La3O12,3a06291097,La3Gd(CuO3)4,"['O', 'Cu', 'La', 'Gd']",20,276.6258,6.1238,m,Pm,6,monoclinic,-153.8279,-2.4586,-0.0387,3D,,True,0.0,,-0.0387,-0.005
86993,Br12La3Na1Pr3Ru1,3a07134555,NaLa3Pr3RuBr12,"['Na', 'Br', 'Ru', 'La', 'Pr']",20,750.0981,4.2556,3,R3,146,trigonal,-99.7635,-2.0186,-0.0138,intercalated ion,0.2473,True,0.0,,-0.0138,-0.0138
87022,Bi6Br2La2Pr8,3a0cb3c8f0,LaPr4Bi3Br,"['Br', 'La', 'Pr', 'Bi']",18,557.2161,8.4001,mm2,Amm2,38,orthorhombic,-94.2788,-1.0859,-0.0016,3D,0.0038,True,0.0,,-0.0016,-0.0015
87057,F13K5U1Zr1,3a1461da7f,K5ZrUF13,"['F', 'K', 'Zr', 'U']",20,373.3814,3.4321,m,Cm,8,monoclinic,-122.1976,-3.5979,-0.019,intercalated ion,0.453,True,0.0,,-0.019,-0.0024
87109,Br6In2O18,3a1c14b098,In(BrO3)3,"['O', 'Br', 'In']",26,491.4024,3.3692,1,P1,1,triclinic,-119.6702,-0.5878,-0.0886,3D,3.3141,True,0.0,,-0.0886,-0.0854
87113,Ag4F28Nb1Ta3,3a1c4cba53,Ta3NbAg4F28,"['F', 'Nb', 'Ag', 'Ta']",36,603.5136,4.4001,1,P1,1,triclinic,-213.0209,-2.8471,-0.012,2D,0.0134,True,0.0,,-0.012,-0.0118
87173,Cu4K1La1O8,3a25cb272a,KLa(CuO2)4,"['O', 'K', 'Cu', 'La']",14,174.7174,5.3241,-4,I-4,82,tetragonal,-84.3903,-1.5974,-0.0315,intercalated ion,,True,0.0,,-0.0315,-0.0241
87229,Ag10Cd1O12Sn3,3a2d9118d0,CdAg10(SnO4)3,"['O', 'Ag', 'Cd', 'Sn']",26,384.0965,7.519,2,C2,5,monoclinic,-127.5176,-1.0333,-0.0055,3D,0.0116,True,-0.0,,-0.0055,-0.0055
87307,F28V1Y4Zr3,3a3bf7fc1a,Y4Zr3VF28,"['F', 'V', 'Y', 'Zr']",36,556.914,3.6144,1,P1,1,triclinic,-261.1302,-4.0838,-0.0106,3D,2.1532,True,0.0,,-0.0106,-0.0104
87310,Ca1O6Os1Sr1,3a3c460ae3,SrCaOsO6,"['O', 'Ca', 'Sr', 'Os']",9,140.6947,4.8853,32,P312,149,trigonal,-65.8691,-2.3621,-0.0621,intercalated ion,1.2864,True,0.0,,-0.0621,-0.0541
87342,Cl3I1S24,3a429219a7,S24ICl3,"['S', 'Cl', 'I']",28,986.7107,1.6877,3m,R3m,160,trigonal,-120.5778,-0.5083,-0.4068,0D,1.209,True,0.0,,-0.4068,-0.3796
87348,Br12Si2Sm7Th1,3a43380e11,Sm7Th(SiBr6)2,"['Si', 'Br', 'Sm', 'Th']",22,811.6486,4.7047,m,Pm,6,monoclinic,-112.1138,-1.8716,-0.0597,3D,0.0229,True,0.0,,-0.0597,-0.0455
87395,Al4Br16Ge2,3a4bf16284,Al2GeBr8,"['Al', 'Ge', 'Br']",22,825.8871,3.0796,m,Pc,7,monoclinic,-80.6411,-1.3737,-0.0159,0D,3.5596,False,-0.0,,-0.0159,-0.0159
87466,F28Np2Pr2Tc4,3a576580f7,PrNpTc2F14,"['F', 'Tc', 'Pr', 'Np']",36,579.4187,4.814,2,P2_1,4,monoclinic,-247.0698,-3.2402,-0.0611,3D,,False,0.0,,-0.0611,-0.061
87468,Bi1Gd1Na4O6,3a5785e64c,Na4GdBiO6,"['O', 'Na', 'Gd', 'Bi']",12,168.9731,5.4461,2,C2,5,monoclinic,-79.1907,-2.1872,-0.0088,intercalated ion,1.1834,True,0.0,,-0.0088,-0.006
87476,Ho5Mo2O14Tb1,3a5905f06b,TbHo5(MoO7)2,"['O', 'Mo', 'Tb', 'Ho']",22,294.1416,7.9004,2,C2,5,monoclinic,-194.0099,-3.4319,-0.0172,3D,1.3709,True,0.0,,-0.0172,-0.0077
87543,O12Ru1Tc1Tm5,3a66419447,Tm5TcRuO12,"['O', 'Tc', 'Ru', 'Tm']",19,242.9339,8.4467,2,C2,5,monoclinic,-164.0767,-3.2993,-0.0356,3D,0.2495,False,-0.0,,-0.0356,-0.0356
87563,Cl6V1Zr1,3a69bab7e0,ZrVCl6,"['Cl', 'V', 'Zr']",8,237.0637,2.4858,3,R3,146,trigonal,-44.943,-2.0275,-0.024,2D,0.8311,True,0.0,,-0.024,-0.0214
87582,As2In1La2Li1O2,3a6cbfbe62,LiLa2In(AsO)2,"['Li', 'O', 'As', 'In', 'La']",8,162.8865,5.9272,-42m,P-4m2,115,tetragonal,-50.7573,-2.1263,-0.0684,intercalated ion,1.1031,True,0.0,,-0.0684,-0.067