Unnamed: 0,Composition,MaterialId,Reduced Formula,Elements,NSites,Volume,Density,Point Group,Space Group,Space Group Number,Crystal System,Corrected Energy,Formation Energy Per Atom,Decomposition Energy Per Atom,Dimensionality Cheon,Bandgap,Is Train,Decomposition Energy Per Atom All,Decomposition Energy Per Atom Relative,Decomposition Energy Per Atom MP,Decomposition Energy Per Atom MP OQMD
76863,F24Na4Pb4Rb4,333d68e23d,RbNaPbF6,"['F', 'Na', 'Rb', 'Pb']",36,674.1728,4.233,mm2,Pna2_1,33,orthorhombic,-167.1714,-2.7009,-0.1863,intercalated ion,3.4486,True,0.0,,-0.1863,-0.0116
76884,La3O19Os6Sr1,3341e42556,SrLa3Os6O19,"['O', 'Sr', 'La', 'Os']",29,388.1787,8.3404,3,R3,146,trigonal,-244.0053,-2.2804,-0.0404,intercalated ion,0.0028,True,0.0,,-0.0404,-0.0337
76937,Br8Ho8Os1Re1,334b166518,Ho8ReOsBr8,"['Br', 'Ho', 'Re', 'Os']",18,527.983,7.3441,2,C2,5,monoclinic,-100.2856,-1.4922,-0.0823,3D,0.7396,True,0.0,,-0.0823,-0.04
76952,F22Hf4Tb1Y1,334ddbeb8c,TbYHf4F22,"['F', 'Y', 'Tb', 'Hf']",28,413.3902,5.5423,222,I222,23,orthorhombic,-212.1705,-4.2567,-0.0083,3D,6.5063,True,0.0,,-0.0083,-0.0069
76974,Cl16Ga5In3,3350f9f302,In3Ga5Cl16,"['Cl', 'Ga', 'In']",24,764.9997,2.7357,2,P2,3,monoclinic,-88.3766,-1.4752,-0.0251,intercalated ion,3.5687,True,0.0,,-0.0251,-0.0052
76977,O32P10Tl2V4,3351148da0,TlV2P5O16,"['O', 'P', 'V', 'Tl']",48,712.7651,3.3414,m,Pc,7,monoclinic,-378.6307,-2.6063,-0.0226,intercalated ion,,True,0.0,,-0.0226,-0.0226
77033,F28Lu3Pt1Tb1Zr3,335bc7d5b5,TbLu3Zr3PtF28,"['F', 'Zr', 'Tb', 'Lu', 'Pt']",36,540.7328,5.1731,1,P1,1,triclinic,-244.1922,-3.91,-0.0038,3D,2.6192,False,0.0,,-0.0038,-0.0018
77087,Gd1In1Lu4O18Te3,336673f93e,GdLu4In(TeO6)3,"['O', 'In', 'Te', 'Gd', 'Lu']",27,362.6057,7.5228,2,C2,5,monoclinic,-210.3437,-2.8496,-0.008,3D,2.8296,True,0.0,,-0.008,-0.0065
77196,Ga1O24Re5Th2,3379d4cee5,Th2GaRe5O24,"['O', 'Ga', 'Re', 'Th']",32,620.1373,4.9506,m,Pm,6,monoclinic,-276.3858,-2.4236,-0.0017,3D,0.714,True,0.0,,-0.0017,-0.0013
77201,La2Li2O12Sr2Te2,337a7e9778,SrLiLaTeO6,"['Li', 'O', 'Sr', 'Te', 'La']",20,263.9534,5.7508,m,Pc,7,monoclinic,-137.7778,-2.7523,-0.0214,intercalated ion,3.2302,True,0.0,,-0.0214,-0.0175
77207,Br4Mg4N4Zn4,337b06df6c,MgZnBrN,"['N', 'Mg', 'Zn', 'Br']",16,313.5239,3.8902,mm2,Pna2_1,33,orthorhombic,-66.4431,-0.9443,-0.0458,3D,,True,0.0,,-0.0458,-0.0139
77280,F30Nb1Tb1U6,3388f16c09,TbU6NbF30,"['F', 'Nb', 'Tb', 'U']",38,615.7302,6.0678,2,C2,5,monoclinic,-290.1641,-3.9562,-0.0279,3D,0.0019,True,-0.0,,-0.0279,-0.0274
77312,K2Mg2O24Pt10,338db0ddda,KMgPt5O12,"['O', 'Mg', 'K', 'Pt']",38,502.0965,8.1411,1,P1,1,triclinic,-233.4313,-1.2828,-0.0773,3D,,True,-0.0,,-0.0773,-0.0267
77336,Cd2Ce2O12Te2,33936dd5ad,CeCdTeO6,"['O', 'Cd', 'Te', 'Ce']",18,259.7468,6.0876,-42m,P-42_1m,113,tetragonal,-120.824,-2.3028,-0.0338,3D,1.3751,True,0.0,,-0.0338,-0.0064
77337,Br2O8Sb5Sm1,3393949ff3,SmSb5(BrO4)2,"['O', 'Br', 'Sb', 'Sm']",16,288.6459,6.023,2,P2,3,monoclinic,-100.7115,-2.0306,-0.0364,intercalated ion,,False,0.0,,-0.0364,-0.0106
77355,Gd5O14Tb1Tc2,339663a06f,TbGd5(TcO7)2,"['O', 'Tc', 'Gd', 'Tb']",22,303.0869,7.4794,1,P1,1,triclinic,-237.7282,-3.3055,-0.0511,3D,0.0019,True,0.0,,-0.0511,-0.0433
77391,Br12Ca1Gd1Ir1Pr1Tb4,339c89489c,CaTb4PrGdIrBr12,"['Ca', 'Br', 'Pr', 'Gd', 'Tb', 'Ir']",20,687.9725,5.1291,1,P1,1,triclinic,-108.9431,-2.0531,-0.0255,intercalated ion,,False,-0.0,,-0.0252,-0.0113
77425,Ce1Cl1Eu1O2,33a1c679e2,CeEuClO2,"['O', 'Cl', 'Ce', 'Eu']",5,101.5177,5.8809,3m,P3m1,156,trigonal,-44.9238,-3.3908,-0.0511,3D,,True,0.0,,-0.0511,-0.0201
77427,F24Ir1Pt2Tc1,33a21f3a9b,TcIrPt2F24,"['F', 'Tc', 'Ir', 'Pt']",28,452.5562,4.1695,m,Pm,6,monoclinic,-127.3052,-1.7889,-0.027,0D,0.001,True,0.0,,-0.027,-0.0244
77448,Ir1O19Pd5Pr4,33a5d84d46,Pr4IrPd5O19,"['O', 'Pd', 'Pr', 'Ir']",29,370.0706,7.1432,2,C2,5,monoclinic,-203.6713,-1.9241,-0.0974,3D,0.0027,True,-0.0,,-0.0974,-0.0598
77499,Br2Pb6Tb9Tm1,33aef08d81,Tb9Tm(Pb3Br)2,"['Br', 'Tb', 'Tm', 'Pb']",18,502.9781,9.9117,32,P312,149,trigonal,-86.4112,-0.8153,-0.023,3D,0.0026,True,0.0,,-0.023,-0.0123
77554,Cs1F12Na3,33bb736db5,CsNa3F12,"['F', 'Na', 'Cs']",16,262.5231,2.719,m,Pm,6,monoclinic,-55.9478,-1.7592,-0.2711,intercalated ion,,False,0.0,,-0.2711,-0.2228
77581,As3Br12Eu12P1,33befdce03,Eu12As3PBr12,"['P', 'As', 'Br', 'Eu']",28,952.3522,5.2974,32,R32,155,trigonal,-219.4148,-2.0313,-0.0647,3D,inf,True,0.0,,-0.0647,-0.0128
77627,Ag2F12I1Os1,33c6bf6019,Ag2OsIF12,"['F', 'Ag', 'I', 'Os']",16,286.2305,4.414,1,P1,1,triclinic,-71.6822,-1.8955,-0.0789,intercalated ion,1.0961,True,0.0,,-0.0789,-0.0786
77666,Br12La1Si2Sm7,33cd46733a,LaSm7(SiBr6)2,"['Si', 'Br', 'La', 'Sm']",22,819.7909,4.4693,m,Pm,6,monoclinic,-110.3891,-1.9059,-0.0716,3D,0.0139,True,0.0,,-0.0716,-0.057
77679,As1Br18Cs6Ir3,33d06e2a96,Cs6As(IrBr6)3,"['As', 'Br', 'Cs', 'Ir']",28,1048.3263,4.5734,3m,P3m1,156,trigonal,-103.725,-1.3469,-0.0395,intercalated ion,1.5823,True,0.0,,-0.0395,-0.0096
77785,Br2Ir2La3Pr1,33e31285a5,La3Pr(IrBr)2,"['Br', 'La', 'Pr', 'Ir']",8,242.1179,7.557,3m,P3m1,156,trigonal,-51.3264,-1.3483,-0.0544,3D,0.019,True,0.0,,-0.0544,-0.0526
77793,Bi1Br6In1O18,33e4d8b159,InBi(BrO3)6,"['O', 'Br', 'In', 'Bi']",26,515.4272,3.5155,1,P1,1,triclinic,-120.4689,-0.5747,-0.0991,3D,3.2152,True,0.0,,-0.0991,-0.0753
77799,Lu1O12Pr5Ru1,33e63e3905,Pr5LuRuO12,"['O', 'Ru', 'Pr', 'Lu']",19,296.7388,6.5616,2,C2,5,monoclinic,-160.044,-3.3141,-0.0161,3D,,True,0.0,,-0.0161,-0.0161
77808,Ac5Br6La3Si8,33e76074ed,Ac5La3(Si4Br3)2,"['Si', 'Br', 'La', 'Ac']",22,650.877,5.7551,m,Cm,8,monoclinic,-118.1642,-1.3421,-0.1485,3D,0.0046,True,0.0,,-0.1485,-0.1223
77820,Ac4F28Ge2Ir2,33e8e844e8,Ac2GeIrF14,"['F', 'Ge', 'Ir', 'Ac']",36,577.3853,5.6647,2,P2_1,4,monoclinic,-215.321,-3.2945,-0.1029,3D,,True,0.0,,-0.1029,-0.0495
77821,Cl26Mo2P4,33e921a10c,MoP2Cl13,"['P', 'Cl', 'Mo']",32,1048.9736,1.9591,mm2,Cmc2_1,36,orthorhombic,-130.2412,-1.2136,-0.0258,0D,0.0004,True,0.0,,-0.0258,-0.0243
77825,Cs2Cu6F21Na1,33e9edc247,Cs2NaCu6F21,"['F', 'Na', 'Cu', 'Cs']",30,438.1512,4.0515,2,C2,5,monoclinic,-127.9837,-2.0043,-0.1446,intercalated ion,,True,0.0,,-0.1446,-0.0067
77865,Cu4Li1O8Pr1,33f07029b3,LiPr(CuO2)4,"['Li', 'O', 'Cu', 'Pr']",14,157.9129,5.5735,-4,I-4,82,tetragonal,-84.9464,-1.5911,-0.0222,intercalated ion,0.6346,False,0.0,,-0.0222,-0.0207
77880,O14P4Se1V1,33f31c2f70,VP4SeO14,"['O', 'P', 'V', 'Se']",20,272.5329,2.9112,1,P1,1,triclinic,-150.5414,-2.3518,-0.0108,3D,1.5839,False,0.0,,-0.0108,-0.0108
77910,Br2O6Se2Sr3,33f7e39909,Sr3Se2(BrO3)2,"['O', 'Se', 'Br', 'Sr']",13,269.9755,4.1615,2,C2,5,monoclinic,-76.0247,-2.3848,-0.0244,intercalated ion,4.2145,True,0.0,,-0.0244,-0.0218
77917,Ac3O12Sr1Ti4,33f9976f3e,SrAc3Ti4O12,"['O', 'Ti', 'Sr', 'Ac']",20,258.3793,7.4041,m,Pm,6,monoclinic,-177.5137,-3.6252,-0.0308,intercalated ion,0.0011,True,0.0,,-0.0308,-0.0282
77995,O24P6Ta3Tm1,34073acea2,TmTa3(PO4)6,"['O', 'P', 'Tm', 'Ta']",34,513.8181,4.1418,3,R3,146,trigonal,-296.5975,-3.0976,-0.019,3D,3.6678,True,0.0,,-0.019,-0.019
78021,F24Rh3Te1,340b9d2e82,TeRh3F24,"['F', 'Rh', 'Te']",28,486.2556,3.0471,m,Pm,6,monoclinic,-121.7367,-1.808,-0.0044,0D,0.7734,True,0.0,,-0.0044,-0.0031
78080,Cl12Gd2N4Pr6,3416b538bd,Pr3Gd(NCl3)2,"['N', 'Cl', 'Pr', 'Gd']",24,591.1169,4.611,2,P2_1,4,monoclinic,-171.3502,-2.4577,-0.0558,3D,2.4683,True,0.0,,-0.0558,-0.0058
78129,F12Ru1Sr1V1,341fc63965,SrVRuF12,"['F', 'V', 'Sr', 'Ru']",15,247.093,3.1425,1,P1,1,triclinic,-85.4258,-2.8294,-0.0521,intercalated ion,,False,0.0,,-0.0521,-0.0485
78140,Cl12In2V4,3421279743,V2InCl6,"['Cl', 'V', 'In']",18,558.2664,2.5546,3m,P31c,159,trigonal,-92.368,-1.5748,-0.0497,intercalated ion,0.0023,True,0.0,,-0.0497,-0.0439
78177,Cl6Np4O12Ta2Th2,342604d988,ThNp2Ta(ClO2)3,"['O', 'Cl', 'Ta', 'Th', 'Np']",26,410.0092,8.8237,m,Pm,6,monoclinic,-245.7309,-3.2665,-0.0209,intercalated ion,0.0036,True,0.0,,-0.0209,-0.0208
78274,F30Ho1Np7,3434120475,HoNp7F30,"['F', 'Ho', 'Np']",38,612.1946,6.4933,2,C2,5,monoclinic,-301.9672,-3.9317,-0.0249,3D,0.0009,True,0.0,,-0.0249,-0.0245
78389,Cl30Os5Pb1,344547fb86,Os5PbCl30,"['Cl', 'Os', 'Pb']",36,1176.5294,3.136,1,P1,1,triclinic,-148.1838,-0.9133,-0.1516,0D,,True,0.0,,-0.1516,-0.1499
78458,Mg1O24S6Tl3,344e82b175,MgTl3(SO4)6,"['O', 'Mg', 'S', 'Tl']",34,510.7306,3.9465,3,R3,146,trigonal,-211.0923,-1.7305,-0.0357,3D,,True,0.0,,-0.0357,-0.0348
78463,Hf16Ir7O4Pd1,344f8e4e39,Hf16Ir7PdO4,"['O', 'Pd', 'Hf', 'Ir']",28,475.3938,15.2705,3m,R3m,160,trigonal,-287.6348,-1.4814,-0.014,3D,0.0085,True,0.0,,-0.014,-0.0091
78464,Au1Li4O6Sc1,344fd2a66e,Li4ScAuO6,"['Li', 'O', 'Sc', 'Au']",12,118.7536,5.1134,2,C2,5,monoclinic,-72.2808,-2.1126,-0.0173,intercalated ion,1.6737,True,0.0,,-0.0173,-0.004
78468,O24P6Ta3Tc1,345043a64d,Ta3Tc(PO4)6,"['O', 'P', 'Tc', 'Ta']",34,496.8201,4.0465,3,R3,146,trigonal,-293.9265,-2.8459,-0.0469,3D,0.1582,True,0.0,,-0.0469,-0.0469
78542,Hf16O4Os3Pt5,345f41c387,Hf16Os3Pt5O4,"['O', 'Hf', 'Os', 'Pt']",28,478.3267,15.5038,3m,R3m,160,trigonal,-283.8311,-1.4531,-0.0296,,0.0031,,-0.0,,-0.0296,-0.0167
78579,Cl10Hg8S4Tm2,346587ea5c,TmHg4S2Cl5,"['S', 'Cl', 'Tm', 'Hg']",24,715.2153,5.6311,2,P2_1,4,monoclinic,-78.9129,-1.3542,-0.0399,3D,2.4561,True,0.0,,-0.0399,-0.0245
78581,Cu6O2Ta12Zn6,3465f3c342,Ta6Zn3Cu3O,"['O', 'Cu', 'Zn', 'Ta']",26,367.1137,13.4661,mm2,Imm2,44,orthorhombic,-194.9201,-0.4068,-0.0056,3D,,True,0.0,,-0.0056,-0.0014
78598,As2Ir1O2Ru1Tb2,34684039e1,Tb2As2IrRuO2,"['O', 'As', 'Ru', 'Tb', 'Ir']",8,133.5337,9.861,-42m,P-4m2,115,tetragonal,-63.1543,-2.0698,-0.0251,3D,0.0371,True,0.0,,-0.0251,-0.0171
78665,In6O18Pr5Sm1,3474b1ea7e,Pr5SmIn6O18,"['O', 'In', 'Pr', 'Sm']",30,468.6214,6.4909,3,P3,143,trigonal,-220.9429,-2.8915,-0.0143,3D,2.0933,True,0.0,,-0.0143,-0.014
78667,Ga5O4Pd3Ti12,3474f1d11a,Ti12Ga5Pd3O4,"['O', 'Ti', 'Ga', 'Pd']",24,325.5572,6.6628,3,R3,146,trigonal,-178.4494,-1.3846,-0.0573,3D,0.0003,True,0.0,,-0.0573,-0.0568
78669,Cd4O24Pr4Sr4Ta4,3475ce6772,SrPrTaCdO6,"['O', 'Sr', 'Cd', 'Pr', 'Ta']",40,569.9401,7.2009,m,Pc,7,monoclinic,-321.3924,-3.1409,-0.0053,intercalated ion,3.7601,True,0.0,,-0.0053,-0.005
78689,Cl2In6Tb5Y5,3479b9c61b,Tb5Y5(In3Cl)2,"['Cl', 'Y', 'In', 'Tb']",18,486.8814,6.8176,mm2,Amm2,38,orthorhombic,-90.0136,-0.7946,-0.0427,3D,0.0033,True,0.0,,-0.0427,-0.0373
78727,Cl7Nb3Pu1,348033e3a9,PuNb3Cl7,"['Cl', 'Nb', 'Pu']",11,2580.3774,0.4961,1,P1,1,triclinic,-80.3484,-2.0761,-0.3355,intercalated ion,,True,0.0,,-0.3355,-0.3277
78748,As4O14Pd1Sn1,3485030b73,SnAs4PdO14,"['O', 'As', 'Pd', 'Sn']",20,301.5597,4.1233,1,P1,1,triclinic,-127.8476,-1.5375,-0.0192,3D,,True,0.0,,-0.0192,-0.0087
78755,Cu2Ir3O12Rh1,348673c0ba,Cu2Ir3RhO12,"['O', 'Cu', 'Rh', 'Ir']",18,194.2096,8.5386,mm2,Cmm2,35,orthorhombic,-122.0491,-1.1442,-0.0704,3D,0.0012,True,0.0,,-0.0704,-0.0514
78768,O24P6W2Zr2,348970747d,ZrP3WO12,"['O', 'P', 'Zr', 'W']",34,514.9304,3.6116,1,P1,1,triclinic,-291.0921,-2.8485,-0.0065,3D,2.3906,True,-0.0,,-0.0065,-0.0065
78853,Bi3In2O12Sn1,34963746ac,In2Sn(BiO4)3,"['O', 'In', 'Sn', 'Bi']",18,253.593,7.6434,mm2,Cmm2,35,orthorhombic,-110.3021,-1.6524,-0.0159,3D,0.0228,True,0.0,,-0.0159,-0.0048
78985,Br24Li4Os4,34a941fd9f,LiOsBr6,"['Li', 'Br', 'Os']",32,1014.0408,4.4318,3,R3,146,trigonal,-120.5785,-0.8983,-0.1036,intercalated ion,0.3539,True,0.0,,-0.1036,-0.0765
79004,F11I2Np2,34ac3aa18a,Np2I2F11,"['F', 'I', 'Np']",15,343.2368,4.5321,2,C2,5,monoclinic,-96.6532,-3.1122,-0.0401,0D,0.0594,True,-0.0,,-0.0401,-0.0399
79045,Nb5O48P12Sb2Ta1,34b53583c7,TaNb5Sb2(PO4)12,"['O', 'P', 'Nb', 'Sb', 'Ta']",68,1003.854,3.3557,1,P1,1,triclinic,-561.976,-2.7778,-0.0011,3D,1.8037,True,-0.0,,-0.0011,-0.0004
79047,Al4Ba8Lu2O20Tm2,34b566832a,Ba4TmLuAl2O10,"['O', 'Al', 'Ba', 'Tm', 'Lu']",36,624.7364,5.8857,6mm,P6_3mc,186,hexagonal,-272.1129,-3.4674,-0.0242,intercalated ion,,True,0.0,,-0.0242,-0.0025
79098,Bi5Br2Pb1Pr10,34c084c0b6,Pr10Bi5PbBr2,"['Br', 'Pr', 'Pb', 'Bi']",18,553.0109,8.4706,mm2,Amm2,38,orthorhombic,-92.9466,-1.0389,-0.0145,3D,0.0124,True,0.0,,-0.0145,-0.0134
79129,Cl12K2Th2Tl2,34c590602e,KThTlCl6,"['Cl', 'K', 'Tl', 'Th']",18,631.7245,3.6182,2,P2_1,4,monoclinic,-85.6357,-2.3156,-0.0452,intercalated ion,,True,-0.0,,-0.0452,-0.0378
79137,F28Ru1Tb4Zr3,34c6899c5b,Tb4Zr3RuF28,"['F', 'Zr', 'Ru', 'Tb']",36,562.6651,4.5519,1,P1,1,triclinic,-249.5167,-3.9595,-0.0113,3D,0.1315,True,0.0,,-0.0113,-0.0089
79243,As1Br18Cs6In3,34d8d9583c,Cs6In3AsBr18,"['As', 'Br', 'In', 'Cs']",28,1091.7858,4.0382,3m,P3m1,156,trigonal,-92.5794,-1.601,-0.0641,intercalated ion,2.3563,True,0.0,,-0.0641,-0.0483
79245,O16Ru4Sm3Y1,34d94c0621,Sm3Y(RuO4)4,"['O', 'Y', 'Ru', 'Sm']",24,311.0462,6.4076,1,P1,1,triclinic,-195.9291,-2.4601,-0.0195,3D,,True,0.0,,-0.0195,-0.0195
79257,Ag4F28Ru1Ta3,34db201853,Ta3Ag4RuF28,"['F', 'Ru', 'Ag', 'Ta']",36,599.7853,4.45,1,P1,1,triclinic,-204.4232,-2.6312,-0.0091,2D,0.0089,True,0.0,,-0.0091,-0.0091
79269,Bi5Ir3O18Pb1,34de8f658e,Bi5Ir3PbO18,"['O', 'Ir', 'Pb', 'Bi']",27,394.2429,8.9157,2,C2,5,monoclinic,-178.243,-1.463,-0.0753,3D,0.0049,True,0.0,,-0.0753,-0.0631
79301,Ir3O24Pr8W1,34e43b56c9,Pr8Ir3WO24,"['O', 'Pr', 'W', 'Ir']",36,534.4484,7.0583,1,P1,1,triclinic,-297.1851,-2.7976,-0.0746,3D,0.2849,True,0.0,,-0.0746,-0.0661
79319,Ag6F18Ti3,34e67f9e11,TiAg2F6,"['F', 'Ti', 'Ag']",27,445.9667,4.2179,32,P321,150,trigonal,-146.7861,-2.6555,-0.0581,3D,2.3227,True,0.0,,-0.0581,-0.0581
79367,Ce2F14Re2,34ee385c0b,CeReF7,"['F', 'Ce', 'Re']",18,305.1613,4.9987,2,P2_1,4,monoclinic,-122.0296,-3.2508,-0.0313,3D,0.0012,False,0.0,,-0.0313,-0.0279
79382,Br6Pa1Sr1,34f0741b0b,SrPaBr6,"['Br', 'Sr', 'Pa']",8,355.9944,3.7227,1,P1,1,triclinic,-38.2058,-2.1475,-0.0425,intercalated ion,,False,0.0,,-0.0425,-0.0304
79388,Al2Ba2Lu2O14Zn6,34f147928e,BaLuAlZn3O7,"['O', 'Al', 'Zn', 'Ba', 'Lu']",26,355.6309,6.0467,6mm,P6_3mc,186,hexagonal,-169.544,-2.7824,-0.0077,intercalated ion,2.4722,True,0.0,,-0.0077,-0.004
79394,Ac1Br20Rb8Tb3,34f24cba49,Rb8AcTb3Br20,"['Br', 'Rb', 'Tb', 'Ac']",32,1172.7124,4.2276,m,Pm,6,monoclinic,-129.6156,-2.219,-0.047,intercalated ion,4.1613,True,0.0,,-0.047,-0.0238
79415,Ba6F20Hf1Zr1,34f5a52815,Ba6HfZrF20,"['F', 'Zr', 'Ba', 'Hf']",28,466.4145,5.2465,mm2,Amm2,38,orthorhombic,-185.474,-4.1866,-0.0094,intercalated ion,5.8169,True,0.0,,-0.0094,-0.0032
79416,Bi3Ho3O14Ta2,34f5cc6db6,Ho3Ta2Bi3O14,"['O', 'Ho', 'Ta', 'Bi']",22,311.6789,9.0977,1,P1,1,triclinic,-186.1253,-3.0782,-0.0188,3D,3.1253,True,-0.0,,-0.0188,-0.0188
79425,O12Pd2Pr4Th1,34f76b0fde,Pr4Th(PdO6)2,"['O', 'Pd', 'Pr', 'Th']",19,287.7606,6.9276,m,Cm,8,monoclinic,-152.7583,-2.9729,-0.0871,3D,1.2865,True,0.0,,-0.0871,-0.0651
79446,Li8O48Pr12Ta1W7Zn4,34fc0168cd,Li8Pr12TaZn4W7O48,"['Li', 'O', 'Zn', 'Pr', 'Ta', 'W']",80,1023.5511,6.8849,1,P1,1,triclinic,-651.888,-2.9264,-0.0308,intercalated ion,,True,-0.0,,-0.0308,-0.028
79468,Ag1Al6F21Tl2,34ffa6ce27,Al6Tl2AgF21,"['F', 'Al', 'Ag', 'Tl']",30,429.8784,4.1621,2,C2,5,monoclinic,-174.2446,-3.4691,-0.0092,intercalated ion,,True,0.0,,-0.0092,-0.0092
79484,Ba2Nb3O18Sr6Ta1,3502ce3609,Ba2Sr6TaNb3O18,"['O', 'Sr', 'Nb', 'Ba', 'Ta']",30,495.3623,5.1893,3,P3,143,trigonal,-244.8998,-3.3233,-0.0076,intercalated ion,3.7664,True,0.0,,-0.0076,-0.0063
79616,Be1Br6Pr8Si7,3519c9ccef,Pr8BeSi7Br6,"['Be', 'Si', 'Br', 'Pr']",22,560.5267,5.3689,m,Cm,8,monoclinic,-118.7159,-1.315,-0.0751,intercalated ion,,True,0.0,,-0.0751,-0.0246
79628,Br14Ga1In1Se2,351c2ee47e,InGa(SeBr7)2,"['Ga', 'Se', 'Br', 'In']",18,740.7629,3.2753,1,P1,1,triclinic,-52.6202,-0.9406,-0.0549,0D,,True,0.0,,-0.0549,-0.0024
79647,C4K4O12Pt2,351fe0634c,K2Pt(CO3)2,"['C', 'O', 'K', 'Pt']",22,337.3839,3.8715,mm2,Fdd2,43,orthorhombic,-151.8537,-1.7722,-0.0024,intercalated ion,2.1471,True,0.0,,-0.0024,-0.0024
79671,O2Sc1Si6Tb9,3523e3fa73,Tb9Sc(Si3O)2,"['O', 'Si', 'Sc', 'Tb']",18,379.4146,7.3343,32,P312,149,trigonal,-114.4403,-1.3306,-0.0237,3D,0.0003,True,-0.0,,-0.0237,-0.023
79695,Br6Li2O16,3526a8ec92,LiBr3O8,"['Li', 'O', 'Br']",24,384.8885,3.2327,-4,P-4,81,tetragonal,-105.5606,-0.5314,-0.113,intercalated ion,2.5573,True,0.0,,-0.113,-0.1115
79708,Ba8Ga4Lu3O20Y1,3528bebc6b,Ba8YLu3(GaO5)4,"['O', 'Ga', 'Y', 'Ba', 'Lu']",36,600.441,6.392,1,P1,1,triclinic,-260.1338,-3.1578,-0.0204,intercalated ion,3.4354,True,-0.0,,-0.0204,-0.0129
79721,F14Ir1Ru1Tm2,352af15488,Tm2IrRuF14,"['F', 'Ru', 'Tm', 'Ir']",18,262.8935,5.6666,1,P1,1,triclinic,-108.7781,-3.0529,-0.1894,3D,0.001,True,0.0,,-0.1894,-0.0218
79861,F12Mo2Na2Zn2,354529e460,NaZnMoF6,"['F', 'Na', 'Zn', 'Mo']",18,249.3472,3.9735,4mm,P4_2nm,102,tetragonal,-99.8507,-2.7805,-0.013,intercalated ion,,True,0.0,,-0.013,-0.012
79890,As2O26Rb2Ta8,3549357fcd,RbTa4AsO13,"['O', 'As', 'Rb', 'Ta']",38,566.11,6.4072,mm2,Cmc2_1,36,orthorhombic,-349.0881,-3.0079,-0.0361,intercalated ion,2.7619,True,0.0,,-0.0361,-0.023
79945,Br24Cs5In6Rb1,355473577f,Cs5Rb(InBr4)6,"['Br', 'Rb', 'In', 'Cs']",36,1686.0656,3.3058,1,P1,1,triclinic,-117.9486,-1.5748,-0.0547,intercalated ion,3.2495,True,0.0,,-0.0547,-0.0544
79953,Bi3Cl1Te10,3555deba38,Bi3Te10Cl,"['Cl', 'Te', 'Bi']",14,423.597,7.5987,mm2,Amm2,38,orthorhombic,-53.5628,-0.6151,-0.2509,intercalated ion,,False,0.0,,-0.2509,-0.2384
79961,Ho5O12Th1U1,3556c50ddd,Ho5ThUO12,"['O', 'Ho', 'Th', 'U']",19,275.4442,8.9628,1,P1,1,triclinic,-178.2123,-4.0642,-0.0356,3D,0.8997,True,0.0,,-0.0356,-0.0048
80005,F30Sm1U7,355e860420,SmU7F30,"['F', 'Sm', 'U']",38,631.4274,6.2761,2,C2,5,monoclinic,-293.7076,-4.0159,-0.0229,3D,0.0055,True,-0.0,,-0.0229,-0.0225
80026,Ir1La5O12Pd1,356244bb89,La5IrPdO12,"['O', 'Pd', 'La', 'Ir']",19,296.8232,6.6302,2,C2,5,monoclinic,-154.8287,-2.9871,-0.0704,3D,0.4388,True,0.0,,-0.0704,-0.0594
80084,K12O16P1V3,356a4cae88,K12V3PO16,"['O', 'P', 'K', 'V']",32,650.3412,2.3209,m,Pm,6,monoclinic,-200.4537,-2.353,-0.0028,intercalated ion,,True,0.0,,-0.0028,-0.0028
80094,F20Ho1K8Np3,356baf1ec0,K8HoNp3F20,"['F', 'K', 'Ho', 'Np']",32,568.4393,4.5825,m,Pm,6,monoclinic,-202.9274,-3.5122,-0.0418,intercalated ion,0.0067,True,0.0,,-0.0418,-0.0236
80121,Hf16Ir7O4Pt1,357026ce3b,Hf16Ir7PtO4,"['O', 'Hf', 'Ir', 'Pt']",28,472.4924,15.6759,3m,R3m,160,trigonal,-289.3766,-1.5118,-0.0188,3D,,True,0.0,,-0.0188,-0.0066
80137,F28Hf4Pr3Y1,3572fdb923,Pr3YHf4F28,"['F', 'Y', 'Pr', 'Hf']",36,601.4305,4.8525,1,P1,1,triclinic,-269.2046,-4.3068,-0.0041,3D,,True,0.0,,-0.0041,-0.0028
80154,F6H8Se1,35785cbb0b,H8SeF6,"['H', 'F', 'Se']",15,200.4985,1.6648,1,P1,1,triclinic,-63.6779,-1.4381,-0.0465,0D,4.5713,True,0.0,,-0.0465,-0.0307
80196,Au1La7O24Te4,35800d5fcf,La7Te4AuO24,"['O', 'Te', 'La', 'Au']",36,548.6405,6.2461,1,P1,1,triclinic,-267.687,-2.7371,-0.0019,3D,,False,0.0,,-0.0019,-0.0019
80214,Gd3O26Sb9,35836b5973,Gd3Sb9O26,"['O', 'Sb', 'Gd']",38,566.874,5.8105,m,Pm,6,monoclinic,-295.0763,-2.2905,-0.0603,3D,1.4419,True,0.0,,-0.0603,-0.058
80308,Gd1La2O14Ta2Y3,3594a6e6ed,La2GdY3Ta2O14,"['O', 'Y', 'La', 'Gd', 'Ta']",22,311.9383,6.8546,m,Pm,6,monoclinic,-221.1448,-3.855,-0.0243,3D,3.3132,True,0.0,,-0.0243,-0.0242
80316,Br8Os2Pr7Sm1,359695d53c,Pr7Sm(OsBr4)2,"['Br', 'Pr', 'Sm', 'Os']",18,596.4045,6.004,1,P1,1,triclinic,-100.4336,-1.4833,-0.015,3D,0.5192,True,0.0,,-0.015,-0.0149
80336,Bi2K2O14Zn8,359a012d93,KZn4BiO7,"['O', 'K', 'Zn', 'Bi']",26,362.3174,5.6987,6mm,P6_3mc,186,hexagonal,-134.1502,-1.7231,-0.014,intercalated ion,0.0577,True,0.0,,-0.014,-0.0049
80416,As2Ce2Li1O2Zn1,35a728b599,LiCe2Zn(AsO)2,"['Li', 'O', 'Zn', 'As', 'Ce']",8,140.052,6.3364,-42m,P-4m2,115,tetragonal,-51.0998,-2.1064,-0.0562,intercalated ion,0.0013,True,0.0,,-0.0562,-0.0312
80419,Br6Ho1Na1Sn1,35a75fbb82,NaHoSnBr6,"['Na', 'Br', 'Sn', 'Ho']",9,322.8202,4.0433,3,R3,146,trigonal,-36.1874,-1.8279,-0.0385,intercalated ion,3.4748,True,0.0,,-0.0385,-0.0092
80432,Cl2In6Tm9Y1,35a9fc9468,YTm9(In3Cl)2,"['Cl', 'Y', 'In', 'Tm']",18,470.9385,8.3536,mm2,Amm2,38,orthorhombic,-80.4371,-0.7489,-0.0247,3D,,True,0.0,,-0.0247,-0.0177
80521,Ho1O16U5,35b94cc4d9,HoU5O16,"['O', 'Ho', 'U']",22,339.7388,7.8744,m,Pm,6,monoclinic,-221.7526,-3.7066,-0.0222,3D,0.0005,True,0.0,,-0.0222,-0.0026
80529,Ag1Br16Rb3,35bb992f4e,Rb3AgBr16,"['Br', 'Rb', 'Ag']",20,797.7173,3.4195,1,P1,1,triclinic,-52.6038,-1.0319,-0.3228,intercalated ion,1.8281,True,0.0,,-0.3228,-0.0288
80589,Br6Sn1Zr1,35c885b13e,ZrSnBr6,"['Br', 'Zr', 'Sn']",8,315.3509,3.6299,3,R3,146,trigonal,-35.1585,-1.5974,-0.0509,2D,2.2746,False,0.0,,-0.0509,-0.0269