Unnamed: 0,Composition,MaterialId,Reduced Formula,Elements,NSites,Volume,Density,Point Group,Space Group,Space Group Number,Crystal System,Corrected Energy,Formation Energy Per Atom,Decomposition Energy Per Atom,Dimensionality Cheon,Bandgap,Is Train,Decomposition Energy Per Atom All,Decomposition Energy Per Atom Relative,Decomposition Energy Per Atom MP,Decomposition Energy Per Atom MP OQMD
94904,F28Ge1Ho4V3,3f546300f4,Ho4V3GeF28,"['F', 'V', 'Ge', 'Ho']",36,500.0187,4.7063,1,P1,1,triclinic,-235.0747,-3.6486,-0.0373,3D,1.9866,True,0.0,,-0.0373,-0.0368
94916,As3B1Br12La12,3f57bc255b,La12B(AsBr4)3,"['B', 'As', 'Br', 'La']",28,907.232,5.2371,32,R32,155,trigonal,-151.1413,-1.8432,-0.0044,3D,0.0005,True,0.0,,-0.0044,-0.0032
94918,Br18C4Rb1Sm8Y2,3f5800b155,RbSm8Y2(C2Br9)2,"['C', 'Br', 'Rb', 'Y', 'Sm']",33,1039.1985,4.7178,1,P1,1,triclinic,-179.9027,-1.8748,-0.0994,intercalated ion,0.1529,False,0.0,,-0.0994,-0.0364
95008,Np4O24Tb5Y3,3f64f4c214,Tb5Y3Np4O24,"['O', 'Y', 'Tb', 'Np']",36,498.4144,7.9737,1,P1,1,triclinic,-347.9947,-3.7467,-0.1945,3D,0.4778,True,0.0,,-0.1945,-0.1911
95050,Gd11O24U3,3f6b53beab,Gd11U3O24,"['O', 'Gd', 'U']",38,586.8735,8.0012,1,P1,1,triclinic,-456.8524,-3.9254,-0.0848,3D,,True,-0.0,,-0.0848,-0.0724
95051,Br12Ir1La2Na1Pr4,3f6b71d2f4,NaLa2Pr4IrBr12,"['Na', 'Br', 'La', 'Pr', 'Ir']",20,751.9877,4.4506,1,P1,1,triclinic,-99.9487,-2.0574,-0.0141,intercalated ion,,True,-0.0,,-0.0141,-0.0139
95076,Br12Si2Sm1Y7,3f6f3f8d2a,SmY7(SiBr6)2,"['Si', 'Br', 'Y', 'Sm']",22,764.9688,3.8807,m,Pm,6,monoclinic,-122.5027,-1.9102,-0.0585,3D,0.0195,True,0.0,,-0.0585,-0.0526
95078,As2O2Pr2Rh1Ru1,3f6f5b8d82,Pr2As2RuRhO2,"['O', 'As', 'Ru', 'Rh', 'Pr']",8,144.5006,7.6722,-42m,P-4m2,115,tetragonal,-61.9291,-2.0643,-0.0936,3D,0.037,True,0.0,,-0.0936,-0.0297
95110,Au1Br12Ir2Pr12Rh1,3f7608fe8b,Pr12Ir2RhAuBr12,"['Br', 'Rh', 'Pr', 'Ir', 'Au']",28,920.4553,6.0148,2,C2,5,monoclinic,-150.7307,-1.6215,-0.0061,3D,inf,True,0.0,,-0.0061,-0.0056
95182,Cl19Y1,3f81031767,YCl19,"['Cl', 'Y']",20,755.8012,1.6753,1,P1,1,triclinic,-60.9447,-0.9678,-0.419,0D,,True,-0.0,,-0.419,-0.3897
95238,F31V1,3f899fd61a,VF31,"['F', 'V']",32,614.2873,1.7298,m,Cm,8,monoclinic,-94.918,-0.8306,-0.3044,intercalated ion,,False,0.0,,-0.3044,-0.3043
95245,Gd1O14Pr2Ta2Y3,3f8b54adf1,Pr2GdY3Ta2O14,"['O', 'Y', 'Pr', 'Gd', 'Ta']",22,308.7824,6.9462,m,Pm,6,monoclinic,-219.9919,-3.8167,-0.0223,3D,3.282,True,0.0,,-0.0223,-0.0189
95262,F15Tb1Zr3,3f8f64ac86,TbZr3F15,"['F', 'Zr', 'Tb']",19,270.9297,4.398,3m,R3m,160,trigonal,-137.2309,-4.1201,-0.0075,3D,5.8136,True,0.0,,-0.0075,-0.0066
95381,Bi6Cl2La7Pr3,3fa6c511c8,La7Pr3(Bi3Cl)2,"['Cl', 'La', 'Pr', 'Bi']",18,556.5842,8.1145,32,P312,149,trigonal,-97.4547,-1.1957,-0.0526,3D,0.0056,True,-0.0,,-0.0526,-0.0522
95434,K3O24P3Pa6,3faf85f109,KPa2PO8,"['O', 'P', 'K', 'Pa']",36,689.6616,4.7684,3,R3,146,trigonal,-321.9114,-3.5139,-0.2987,intercalated ion,3.1176,False,0.0,,-0.2987,-0.2987
95444,Br18La1Nb6Rb1,3fb096d3f0,RbLa(NbBr3)6,"['Br', 'Rb', 'Nb', 'La']",26,821.3868,4.4882,3,R3,146,trigonal,-135.8944,-1.5348,-0.0209,intercalated ion,1.0989,True,0.0,,-0.0209,-0.0209
95458,As7F8K8O32P1V8,3fb3e07aef,K8V8As7P(O4F)8,"['O', 'F', 'P', 'K', 'V', 'As']",64,918.4595,3.5069,1,P1,1,triclinic,-447.5073,-2.4109,-0.0297,intercalated ion,,True,0.0,,-0.0297,-0.0286
95484,F4Zn1,3fb8ce585c,ZnF4,"['F', 'Zn']",5,70.4883,3.3311,1,P1,1,triclinic,-17.3657,-1.692,-0.1302,intercalated molecule,2.8654,True,0.0,,-0.1302,-0.0167
95546,Br12Cs1Rb3Tm1U1,3fc42d682f,CsRb3TmUBr12,"['Br', 'Rb', 'Cs', 'Tm', 'U']",18,730.498,3.9897,2,P2,3,monoclinic,-75.8766,-2.035,-0.0672,intercalated ion,0.6921,True,0.0,,-0.0672,-0.0494
95547,Bi9O10Si1Tb18,3fc43569b5,Tb18SiBi9O10,"['O', 'Si', 'Tb', 'Bi']",38,904.5013,9.05,4,P4,75,tetragonal,-257.7871,-2.2225,-0.0136,3D,0.0104,True,0.0,,-0.0136,-0.0133
95560,F15Hf3Tb1,3fc7a316b0,TbHf3F15,"['F', 'Tb', 'Hf']",19,261.7305,6.2136,3m,R3m,160,trigonal,-143.5449,-4.2298,-0.0093,3D,6.8188,True,0.0,,-0.0094,-0.0085
95591,Gd1O24Tm4W4Y3,3fcd5ab3dd,GdY3Tm4(WO6)4,"['O', 'Y', 'Gd', 'Tm', 'W']",36,458.4088,8.0383,2,P2,3,monoclinic,-341.3943,-3.3176,-0.0056,3D,3.4642,True,-0.0,,-0.0056,-0.0047
95606,Br1C4Gd4Se1,3fce9d6785,Gd4C4SeBr,"['C', 'Se', 'Br', 'Gd']",10,193.5819,7.1704,2,C2,5,monoclinic,-107.9894,-0.9645,-0.051,3D,0.0033,True,0.0,,-0.051,-0.0314
95608,As8Cd2Mg2O16,3fcf8c26c2,MgCd(AsO2)4,"['O', 'Mg', 'As', 'Cd']",28,478.4782,3.9174,2,P2_1,4,monoclinic,-172.5193,-1.8226,-0.0224,2D,2.8945,True,0.0,,-0.0224,-0.0212
95644,Gd2O14Ta2Tm2Y2,3fd92ecf64,GdYTmTaO7,"['O', 'Y', 'Gd', 'Tm', 'Ta']",22,297.6393,7.9003,2,C2,5,monoclinic,-227.9723,-3.8613,-0.0065,3D,3.1702,True,0.0,,-0.0065,-0.0064
95688,Bi4Ho1O14Sb2Sc1,3fe07baa8d,HoScBi4(SbO7)2,"['O', 'Sc', 'Sb', 'Ho', 'Bi']",22,311.8994,8.0568,1,P1,1,triclinic,-155.1803,-2.3262,-0.0099,3D,2.3669,True,0.0,,-0.0099,-0.0096
95704,Br12La1Na1Pr5Ru1,3fe2def7d5,NaLaPr5RuBr12,"['Na', 'Br', 'Ru', 'La', 'Pr']",20,745.299,4.2919,1,P1,1,triclinic,-98.8091,-1.9864,-0.01,intercalated ion,0.182,True,0.0,,-0.01,-0.0099
95735,Br20La1Tl8Y3,3fe98b5e72,LaY3(Tl2Br5)4,"['Br', 'Y', 'La', 'Tl']",32,1081.3335,5.5878,m,Pm,6,monoclinic,-132.0974,-1.7541,-0.0067,intercalated ion,,True,0.0,,-0.0067,-0.0066
95748,Bi3Ho3O14Tm2,3febda1831,Ho3Tm2Bi3O14,"['O', 'Ho', 'Tm', 'Bi']",22,314.396,8.8922,1,P1,1,triclinic,-168.7092,-2.9577,-0.0546,3D,,True,0.0,,-0.0546,-0.0283
95756,Hf1O12Rb2Se3,3fed236463,Rb2Hf(SeO4)3,"['O', 'Se', 'Rb', 'Hf']",18,358.4736,3.6053,2,C2,5,monoclinic,-115.1496,-1.8538,-0.035,intercalated ion,3.6117,True,0.0,,-0.035,-0.0338
95782,O20P4U3Zn1,3ff061ed76,U3Zn(PO5)4,"['O', 'P', 'Zn', 'U']",28,404.1045,5.0271,1,P1,1,triclinic,-239.355,-2.986,-0.0203,3D,0.392,True,0.0,,-0.0203,-0.0203
95808,As1O24P6Ta3,3ff51e0809,Ta3As(PO4)6,"['O', 'P', 'As', 'Ta']",34,504.0846,3.9121,3,R3,146,trigonal,-288.0668,-2.8413,-0.0295,3D,2.8471,True,0.0,,-0.0295,-0.0295
95856,O28P8Pb3Pd4Tl1,3ffca1127f,TlP8Pd4Pb3O28,"['O', 'P', 'Pd', 'Tl', 'Pb']",44,632.7303,5.1109,m,Pm,6,monoclinic,-311.1333,-2.1606,-0.0089,intercalated ion,,True,0.0,,-0.0089,-0.0051
95871,Ho3O24Pr2Tb3W4,3ffecf9bfa,Tb3Pr2Ho3(WO6)4,"['O', 'Pr', 'Tb', 'Ho', 'W']",36,476.8767,8.2621,1,P1,1,triclinic,-326.4407,-3.2957,-0.0139,3D,,False,0.0,,-0.0139,-0.0137
95875,Cd1Hg7O4Pr4,3fff5455a3,Pr4CdHg7O4,"['O', 'Cd', 'Pr', 'Hg']",16,376.7649,9.4501,1,P1,1,triclinic,-69.4503,-1.7179,-0.0236,3D,,False,0.0,,-0.0236,-0.0216
95909,C2Cl2Tb3Y1,4003baaeac,Tb3Y(CCl)2,"['C', 'Cl', 'Y', 'Tb']",8,158.5417,6.9191,3m,P3m1,156,trigonal,-52.5821,-1.2577,-0.1586,3D,0.0085,True,-0.0,,-0.1586,-0.0043
95972,Ho1Ir2La2O14Tm3,400d46c305,La2HoTm3(IrO7)2,"['O', 'La', 'Ho', 'Tm', 'Ir']",22,293.2977,8.8206,m,Pm,6,monoclinic,-184.2356,-3.1548,-0.0372,,0.0018,,-0.0,,-0.0372,-0.0283
95984,Al4La2O24W4Y2,400eed2278,LaYAl2(WO6)2,"['O', 'Al', 'Y', 'La', 'W']",36,426.1674,6.5573,m,Pc,7,monoclinic,-319.7736,-3.0945,-0.009,3D,,True,0.0,,-0.009,-0.009
95988,Ba8Ir2O20Re1W1,400fbc8f9f,Ba8ReIr2WO20,"['O', 'Ba', 'W', 'Re', 'Ir']",32,508.2141,7.1003,m,Pm,6,monoclinic,-238.9453,-2.5486,-0.0496,intercalated ion,0.0049,True,0.0,,-0.0496,-0.0309
96021,F5O7Pu4,4016449638,Pu4O7F5,"['O', 'F', 'Pu']",16,314.4053,6.248,1,P1,1,triclinic,-157.6402,-3.5235,-0.1564,3D,0.0018,True,0.0,,-0.1564,-0.0144
96085,F2I16Re6,40221d7c20,Re3I8F,"['F', 'I', 'Re']",24,1008.2148,5.2469,1,P1,1,triclinic,-116.3746,-0.5625,-0.0108,1D,,True,0.0,,-0.0108,-0.0076
96155,Lu9O2Sc1Si6,402ae22459,Lu9Sc(Si3O)2,"['O', 'Si', 'Sc', 'Lu']",18,345.7395,8.742,32,P312,149,trigonal,-113.9984,-1.3628,-0.0215,3D,0.0036,True,0.0,,-0.0215,-0.0206
96169,Bi1Cl6Gd1,402ccc3e75,GdBiCl6,"['Cl', 'Gd', 'Bi']",8,295.4122,3.2543,2,C2,5,monoclinic,-45.8386,-2.0951,-0.0512,2D,,True,0.0,,-0.0512,-0.0039
96220,F20Gd1Ho3Rb8,40370b0b67,Rb8GdHo3F20,"['F', 'Rb', 'Gd', 'Ho']",32,598.6472,4.7592,m,Pm,6,monoclinic,-193.618,-3.7413,-0.0731,intercalated ion,4.6076,False,0.0,,-0.0731,-0.0067
96232,O20Tb3V4Y5,403887746c,Tb3Y5V4O20,"['O', 'V', 'Y', 'Tb']",32,440.5134,5.4472,m,Pm,6,monoclinic,-292.7426,-3.4754,-0.0041,3D,1.8579,True,0.0,,-0.0041,-0.0041
96293,Cl18Tc5W1,4042c8fb84,Tc5WCl18,"['Cl', 'Tc', 'W']",24,686.1224,3.1753,m,Cm,8,monoclinic,-126.7595,-1.1969,-0.0133,2D,0.2904,True,0.0,,-0.0133,-0.0075
96305,Al9Br4Ga1La8,404459b553,La8Al9GaBr4,"['Al', 'Ga', 'Br', 'La']",22,610.8082,4.7396,m,Pm,6,monoclinic,-104.6362,-0.9937,-0.0064,,0.0062,,0.0,,-0.0064,-0.0036
96393,Bi1Ga5O1Zr10,4054fbe5ec,Zr10Ga5BiO,"['O', 'Ga', 'Zr', 'Bi']",17,335.3621,7.3571,m,Cm,8,monoclinic,-123.6266,-0.8336,-0.0401,3D,0.0026,True,0.0,,-0.0401,-0.0136
96414,O24Pr1V4W4Y3,40585d8343,PrY3V4(WO6)4,"['O', 'V', 'Y', 'Pr', 'W']",36,443.5395,6.4796,1,P1,1,triclinic,-333.9008,-2.8556,-0.009,3D,1.6653,True,0.0,,-0.009,-0.0032
96432,Br2Ir1Si1Tb2,405b209818,Tb2SiIrBr2,"['Si', 'Br', 'Tb', 'Ir']",6,162.8282,7.1179,3m,P3m1,156,trigonal,-36.4918,-1.6142,-0.0311,2D,0.0169,True,0.0,,-0.0311,-0.0263
96454,Ag2Cl12P2,405f0c9c7b,AgPCl6,"['P', 'Cl', 'Ag']",16,552.1696,2.1145,-42m,P-42_1m,113,tetragonal,-54.8712,-1.0123,-0.0146,0D,2.2234,True,0.0,,-0.0146,-0.0062
96471,Cu3F8Pu1,4061aa8304,PuCu3F8,"['F', 'Cu', 'Pu']",12,274.5009,3.5487,1,P1,1,triclinic,-75.9487,-2.841,-0.3507,2D,0.0005,True,0.0,,-0.3507,-0.3365
96475,As2Ce2O2Rh1Ru1,4061f1ac57,Ce2As2RuRhO2,"['O', 'As', 'Ru', 'Rh', 'Ce']",8,137.6276,8.0362,-42m,P-4m2,115,tetragonal,-64.5553,-2.1045,-0.0959,3D,0.0001,True,0.0,,-0.0959,-0.0138
96484,Br10C2Gd5Y1,40627e6313,Gd5Y(CBr5)2,"['C', 'Br', 'Y', 'Gd']",18,547.3414,5.1521,1,P1,1,triclinic,-145.9385,-1.8982,-0.0646,3D,,True,-0.0,,-0.0646,-0.0491
96500,K3O12Pr1,40649ceb5c,K3PrO12,"['O', 'K', 'Pr']",16,289.8495,2.5792,-42m,I-42m,121,tetragonal,-87.5494,-1.2539,-0.1149,intercalated ion,,True,0.0,,-0.1149,-0.079
96519,Ag2Na1O6Sr3,4067323c54,NaSr3(AgO3)2,"['O', 'Na', 'Sr', 'Ag']",12,189.8455,5.2269,m,Cm,8,monoclinic,-65.6203,-1.9897,-0.0168,intercalated ion,0.0149,True,0.0,,-0.0168,-0.0167
96557,F3Pm2Rb1Sn1,406ee3934f,RbPm2SnF3,"['F', 'Rb', 'Sn', 'Pm']",7,165.5319,5.5291,m,Pm,6,monoclinic,-38.9512,-2.6751,-0.0957,intercalated ion,,True,0.0,,-0.0957,-0.0456
96565,Br4Cs1Cu1O12,407053f166,CsCu(BrO3)4,"['O', 'Cu', 'Br', 'Cs']",18,339.5698,3.4625,2,C2,5,monoclinic,-80.9329,-0.5564,-0.0625,intercalated ion,1.2672,True,0.0,,-0.0625,-0.0602
96573,K2O26Ta8V2,407288ff94,KTa4VO13,"['O', 'K', 'V', 'Ta']",38,564.2144,6.0147,mm2,Cmc2_1,36,orthorhombic,-362.6726,-3.1257,-0.0056,intercalated ion,2.4231,True,0.0,,-0.0056,-0.0056
96582,Br35P1,40741a110a,PBr35,"['P', 'Br']",36,1793.7135,2.6177,1,P1,1,triclinic,-81.9497,-0.5345,-0.3742,0D,,True,-0.0,,-0.3742,-0.3734
96591,Br2La3Pr1Rh2,4074e2c0cc,La3Pr(RhBr)2,"['Br', 'Rh', 'La', 'Pr']",8,240.0579,6.3863,3m,P3m1,156,trigonal,-47.9536,-1.2953,-0.0689,3D,0.0158,False,0.0,,-0.0689,-0.0687
96603,Na2O24Sb2Se6,4077510fdc,NaSb(SeO4)3,"['O', 'Na', 'Se', 'Sb']",34,601.0292,3.1696,1,P1,1,triclinic,-194.3383,-1.2853,-0.0159,intercalated ion,2.0242,True,0.0,,-0.0159,-0.0149
96628,Ho3O20V4Y5,407b99b404,Y5Ho3V4O20,"['O', 'V', 'Y', 'Ho']",32,437.6797,5.5508,m,Pm,6,monoclinic,-292.784,-3.4815,-0.0054,3D,1.8669,False,0.0,,-0.0054,-0.0054
96629,Eu2O14Ru2Tm1Y3,407b9fac1e,Eu2Y3Tm(RuO7)2,"['O', 'Y', 'Ru', 'Eu', 'Tm']",22,290.4278,6.665,m,Pm,6,monoclinic,-199.1991,-3.0418,-0.0308,3D,0.0018,True,0.0,,-0.0308,-0.0141
96647,K6O15Pd5,407ddc5783,K6(PdO3)5,"['O', 'K', 'Pd']",26,437.4559,3.8213,32,R32,155,trigonal,-137.168,-1.1687,-0.1097,intercalated ion,,True,-0.0,,-0.1097,-0.0562
96650,F36K2O16P4Ti8Tl14,407ded7c4b,KTi4Tl7P2(O4F9)2,"['O', 'F', 'P', 'K', 'Ti', 'Tl']",80,1306.2725,5.5759,1,P1,1,triclinic,-505.6808,-2.97,-0.0048,intercalated ion,,True,-0.0,,-0.0048,-0.0042
96656,Al8Ba12Ho3O30Y1,407ef851b7,Ba12YHo3Al8O30,"['O', 'Al', 'Y', 'Ba', 'Ho']",54,872.1061,5.574,1,P1,1,triclinic,-406.1665,-3.4171,-0.0231,intercalated ion,,True,0.0,,-0.0231,-0.0231
96688,F12Li2V2Zn2,408335c27a,LiVZnF6,"['Li', 'F', 'V', 'Zn']",18,208.7618,3.7748,4mm,P4_2nm,102,tetragonal,-101.8681,-3.0236,-0.0088,intercalated ion,2.5453,False,0.0,,-0.0088,-0.0028
96711,Ho3O24Tb2Tm3W4,408774353c,Tb2Ho3Tm3(WO6)4,"['O', 'Tb', 'Ho', 'Tm', 'W']",36,456.1289,8.8784,1,P1,1,triclinic,-326.9539,-3.3313,-0.0056,3D,3.6517,True,0.0,,-0.0056,-0.0053
96755,Ce1F22La1Zr4,408fdcdfc8,LaCeZr4F22,"['F', 'Zr', 'La', 'Ce']",28,453.805,3.8856,222,I222,23,orthorhombic,-203.6151,-4.1608,-0.0118,3D,0.0922,True,0.0,,-0.0118,-0.0117
96821,Bi2F14Hf1Zr1,409a24f3e8,HfZrBi2F14,"['F', 'Zr', 'Hf', 'Bi']",18,305.4336,5.1847,1,P1,1,triclinic,-116.3782,-3.5185,-0.023,3D,5.2381,True,0.0,,-0.023,-0.023
96845,Mg1Nb1O20Ru3Sr10,409ce51cbe,Sr10MgNbRu3O20,"['O', 'Mg', 'Sr', 'Nb', 'Ru']",35,503.8527,5.3278,m,Cm,8,monoclinic,-251.9477,-2.7591,-0.0133,intercalated ion,0.094,True,0.0,,-0.0133,-0.0106
96852,F10Ga1K4V1,409e77770d,K4VGaF10,"['F', 'K', 'V', 'Ga']",16,253.6171,3.0579,m,Cm,8,monoclinic,-85.8015,-3.1333,-0.015,intercalated ion,2.6349,False,0.0,,-0.015,-0.0017
96955,F12Li1Na3,40b2414b9d,Na3LiF12,"['Li', 'F', 'Na']",16,208.9412,2.4151,m,Pm,6,monoclinic,-56.8977,-1.7552,-0.2575,intercalated ion,,False,0.0,,-0.2575,-0.2544
97001,Br18Nb2Rb1Ta4Y1,40b8c400f1,RbYTa4(NbBr9)2,"['Br', 'Rb', 'Y', 'Nb', 'Ta']",26,798.12,5.2477,1,P1,1,triclinic,-143.6471,-1.5039,-0.0066,intercalated ion,1.2299,True,0.0,,-0.0066,-0.0066
97037,C6Cs4Na2O18,40bfba50d6,Cs2Na(CO3)3,"['C', 'O', 'Na', 'Cs']",30,570.2297,2.7305,mm2,Pmc2_1,26,orthorhombic,-205.5364,-1.8295,-0.0504,intercalated ion,0.7511,True,0.0,,-0.0504,-0.049
97067,Gd1O24Tb1Tm6W4,40c46c79d3,TbGdTm6(WO6)4,"['O', 'Gd', 'Tb', 'Tm', 'W']",36,453.7415,8.963,2,P2,3,monoclinic,-336.2174,-3.3352,-0.0071,3D,3.4827,True,0.0,,-0.0071,-0.0062
97105,Br1Pr18Si15Y2,40c8eb1de6,Pr18Y2Si15Br,"['Si', 'Br', 'Y', 'Pr']",36,959.3185,5.5656,1,P1,1,triclinic,-207.8619,-0.7182,-0.0202,3D,0.0014,False,0.0,,-0.0202,-0.0164
97106,As2Cl28Ga2,40c98b7ca0,GaAsCl14,"['Cl', 'Ga', 'As']",32,1303.0845,1.6336,2,P2_1,4,monoclinic,-98.7471,-0.9879,-0.2394,0D,,True,0.0,,-0.2394,-0.0483
97145,Ce1O24P6U3,40cfcc9eee,CeU3(PO4)6,"['O', 'P', 'Ce', 'U']",34,564.196,4.1912,3,R3,146,trigonal,-299.3948,-3.187,-0.0369,3D,,True,0.0,,-0.0369,-0.0369
97185,Al2Cl16V2,40d6bd2d44,AlVCl8,"['Al', 'Cl', 'V']",20,659.7557,1.82,2,P2_1,4,monoclinic,-89.202,-1.6983,-0.0276,0D,0.7343,True,0.0,,-0.0276,-0.0122
97224,As1F14Pb2Sb1,40dce145ba,SbAsPb2F14,"['F', 'As', 'Sb', 'Pb']",18,270.9777,5.3746,1,P1,1,triclinic,-90.3689,-2.633,-0.0018,intercalated molecule,,True,0.0,,-0.0018,-0.0006
97242,Eu3O24Tb5W4,40e0750d12,Tb5Eu3(WO6)4,"['O', 'Eu', 'Tb', 'W']",36,477.7953,8.2363,2,P2,3,monoclinic,-337.8149,-3.144,-0.0206,3D,0.0016,True,0.0,,-0.0206,-0.0013
97243,Cl36Cs1H1,40e0771b12,CsHCl36,"['H', 'Cl', 'Cs']",38,1797.2947,1.3029,1,P1,1,triclinic,-97.011,-0.6888,-0.5272,intercalated ion,,True,0.0,,-0.5272,-0.471
97302,Ir2O14Rh1Sn15,40ea8f4eb9,Sn15Ir2RhO14,"['O', 'Rh', 'Sn', 'Ir']",32,582.6682,7.1019,m,Cm,8,monoclinic,-202.3902,-1.4979,-0.0062,3D,0.0005,True,0.0,,-0.0062,-0.0062
97303,F16K4Np3Pr1,40ea92948a,K4PrNp3F16,"['F', 'K', 'Pr', 'Np']",24,385.0565,5.6591,m,Pm,6,monoclinic,-169.0095,-3.765,-0.138,intercalated ion,0.0005,True,0.0,,-0.138,-0.1248
97311,Gd2O14Pr1Ta2Tm3,40eb49cb3c,PrGd2Tm3Ta2O14,"['O', 'Pr', 'Gd', 'Tm', 'Ta']",22,301.9019,8.5149,1,P1,1,triclinic,-224.1773,-3.8559,-0.0079,3D,3.2617,True,0.0,,-0.0079,-0.0037
97321,Bi3F28La1Rh4,40eca17d06,LaBi3Rh4F28,"['F', 'Rh', 'La', 'Bi']",36,559.4089,5.0742,1,P1,1,triclinic,-187.2832,-2.4361,-0.0421,3D,0.0011,True,0.0,,-0.0421,-0.0392
97332,Au3Cl1F20,40eee323b7,Au3ClF20,"['F', 'Cl', 'Au']",24,402.5438,4.1512,m,Pm,6,monoclinic,-76.5736,-1.1114,-0.0219,intercalated molecule,,True,-0.0,,-0.0219,-0.0172
97338,F36O1Th1,40f0533f10,ThOF36,"['O', 'F', 'Th']",38,690.5233,2.2412,1,P1,1,triclinic,-116.4078,-0.9272,-0.2959,0D,,True,0.0,,-0.2959,-0.2939
97437,Cl1Pr17Si15Sm3,40fe4d39f0,Pr17Sm3Si15Cl,"['Si', 'Cl', 'Pr', 'Sm']",36,956.7521,5.7331,1,P1,1,triclinic,-204.7681,-0.7252,-0.0158,3D,0.0011,True,-0.0,,-0.0158,-0.0128
97439,Ca1La3O19Os6,40fe76977d,CaLa3Os6O19,"['O', 'Ca', 'La', 'Os']",29,383.0384,8.2462,3,R3,146,trigonal,-244.0566,-2.2713,-0.0145,intercalated ion,0.0008,True,-0.0,,-0.0145,-0.008
97443,Gd2Lu4O14W2,40ff158b83,GdLu2WO7,"['O', 'Gd', 'Lu', 'W']",22,281.4541,9.4754,222,C222_1,20,orthorhombic,-218.8428,-3.5172,-0.0108,3D,,True,0.0,,-0.0108,-0.0082
97445,Bi5Cu4O16Pb3,40ff49d6db,Cu4Bi5Pb3O16,"['O', 'Cu', 'Pb', 'Bi']",28,432.9846,8.3478,2,C2,5,monoclinic,-165.1952,-1.3944,-0.0064,3D,0.0097,False,0.0,,-0.0064,-0.0064
97473,Ba3F1La1O18Pt6,4102e3928a,Ba3LaPt6O18F,"['O', 'F', 'Ba', 'La', 'Pt']",29,420.9991,8.0005,3,R3,146,trigonal,-191.5116,-1.842,-0.1355,intercalated ion,,True,0.0,,-0.1355,-0.1021
97476,F28Pr4Pt2V2,410317add3,Pr2VPtF14,"['F', 'V', 'Pr', 'Pt']",36,567.5575,4.6451,2,P2_1,4,monoclinic,-221.3546,-3.2889,-0.0186,3D,,True,0.0,,-0.0186,-0.0185
97480,Br17Cs2La9Os2Tb1,4104f701c2,Cs2La9TbOs2Br17,"['Br', 'Cs', 'La', 'Tb', 'Os']",31,1182.007,4.7957,m,Cm,8,monoclinic,-161.6698,-1.9528,-0.0519,intercalated ion,,True,-0.0,,-0.0519,-0.0518
97586,Ho1Ir4O24Pr7,4116e2a653,Pr7Ho(IrO6)4,"['O', 'Pr', 'Ho', 'Ir']",36,532.5244,7.1849,1,P1,1,triclinic,-288.0392,-2.6635,-0.0811,3D,,True,0.0,,-0.0811,-0.0671
97591,Br12Li4Np1Th1,4117628e43,Li4ThNpBr12,"['Li', 'Br', 'Th', 'Np']",18,580.153,4.1664,32,P312,149,trigonal,-81.9814,-1.9078,-0.0869,intercalated ion,0.1148,True,0.0,,-0.0869,-0.0137
97592,Ba2Mg1O24P6V5,411776e2f2,Ba2MgV5(PO4)6,"['O', 'Mg', 'P', 'V', 'Ba']",38,495.048,3.7685,2,C2,5,monoclinic,-311.1748,-2.8707,-0.0245,intercalated ion,,True,0.0,,-0.0245,-0.0241
97614,Bi1O14Pr4Ta2Tb1,411a57e34d,TbPr4Ta2BiO14,"['O', 'Pr', 'Tb', 'Ta', 'Bi']",22,325.0574,7.7517,m,Pm,6,monoclinic,-197.7088,-3.5034,-0.0074,3D,,False,0.0,,-0.0074,-0.0055
97617,In1La5O18Tb1Tl5,411ac852b7,La5TbTl5InO18,"['O', 'In', 'La', 'Tb', 'Tl']",30,496.8988,7.6132,1,P1,1,triclinic,-210.9481,-2.6003,-0.0272,3D,,True,0.0,,-0.0272,-0.0254
97623,O18Sr1V7,411bd71306,SrV7O18,"['O', 'V', 'Sr']",26,472.2918,2.5744,1,P1,1,triclinic,-218.4767,-2.4668,-0.021,intercalated ion,,True,0.0,,-0.021,-0.0208
97649,F7Ho1Tl1Y1,4120ed1954,YHoTlF7,"['F', 'Y', 'Ho', 'Tl']",10,177.528,5.53,mm2,Amm2,38,orthorhombic,-66.6398,-3.9849,-0.02,intercalated ion,,False,0.0,,-0.02,-0.0197
97736,Ir2O12Pr4Sm1,412f59a966,Pr4Sm(IrO6)2,"['O', 'Pr', 'Sm', 'Ir']",19,283.9356,7.5467,m,Cm,8,monoclinic,-157.0181,-2.9539,-0.027,3D,,True,-0.0,,-0.027,-0.027
97795,Gd2O14Pr4Ta2,413a8a3e68,Pr2GdTaO7,"['O', 'Pr', 'Gd', 'Ta']",22,325.0742,7.4785,2,C2,5,monoclinic,-222.9492,-3.7585,-0.009,3D,3.1266,True,0.0,,-0.009,-0.0089
97825,Ca1Na4O6Pt1,413e4b5c8d,Na4CaPtO6,"['O', 'Na', 'Ca', 'Pt']",12,146.8583,4.7842,2,C2,5,monoclinic,-64.3903,-1.7765,-0.0386,intercalated ion,,True,0.0,,-0.0386,-0.0379
97826,As2Cl26P2Tc2,413e5d7885,TcAsPCl13,"['P', 'Cl', 'As', 'Tc']",32,1064.1725,2.0747,mm2,Cmc2_1,36,orthorhombic,-125.5253,-1.1437,-0.0471,0D,0.1228,True,0.0,,-0.0471,-0.0407
97834,F11I2Tc2,413f8f70bb,Tc2I2F11,"['F', 'Tc', 'I']",15,308.775,3.5429,2,C2,5,monoclinic,-76.4099,-2.1076,-0.0846,0D,0.0007,True,-0.0,,-0.0846,-0.0845
97837,Gd4In5O18Sm2Tl1,41400a467f,Sm2Gd4TlIn5O18,"['O', 'In', 'Sm', 'Gd', 'Tl']",30,452.2443,7.3295,1,P1,1,triclinic,-257.1519,-2.8742,-0.0052,3D,1.6133,True,-0.0,,-0.0052,-0.0016
97863,F28Gd1Ho3Ru4,4144225c96,GdHo3Ru4F28,"['F', 'Ru', 'Gd', 'Ho']",36,533.3729,4.9447,1,P1,1,triclinic,-230.5957,-3.1148,-0.0675,3D,,True,0.0,,-0.0675,-0.0318
97886,Bi4O14Pb2Pd2,41481e4db0,Bi2PdPbO7,"['O', 'Pd', 'Pb', 'Bi']",22,312.6288,8.9614,m,Cc,9,monoclinic,-132.4989,-1.3583,-0.0369,3D,,True,0.0,,-0.0369,-0.0275
97887,Ac1Br6La5Os2,41482d7ac8,AcLa5(OsBr3)2,"['Br', 'La', 'Os', 'Ac']",14,502.1384,5.891,m,Pm,6,monoclinic,-82.9195,-1.5601,-0.0927,3D,0.0234,True,0.0,,-0.0927,-0.0884
97905,Cl15P1Th5Zr1,414bfb71f8,Th5ZrPCl15,"['P', 'Cl', 'Zr', 'Th']",22,663.4291,4.5408,4mm,I4mm,107,tetragonal,-132.241,-2.431,-0.0229,3D,,True,0.0,,-0.0229,-0.0129
97907,Cs2O2Rb4,414c525de8,CsRb2O,"['O', 'Rb', 'Cs']",8,459.8694,2.3098,mm2,Ama2,40,orthorhombic,-22.8642,-0.9069,-0.0142,intercalated ion,0.0022,True,0.0,,-0.0142,-0.0009