Unnamed: 0,Composition,MaterialId,Reduced Formula,Elements,NSites,Volume,Density,Point Group,Space Group,Space Group Number,Crystal System,Corrected Energy,Formation Energy Per Atom,Decomposition Energy Per Atom,Dimensionality Cheon,Bandgap,Is Train,Decomposition Energy Per Atom All,Decomposition Energy Per Atom Relative,Decomposition Energy Per Atom MP,Decomposition Energy Per Atom MP OQMD
146956,F28Pt4Tm1Y3,61c4648354,Y3TmPt4F28,"['F', 'Y', 'Tm', 'Pt']",36,522.8923,5.5509,1,P1,1,triclinic,-206.4281,-2.9097,-0.0554,3D,2.2951,True,0.0,,-0.0554,-0.0135
146997,Br8S32Sn2,61cd0c374b,Sn(S4Br)4,"['S', 'Br', 'Sn']",42,1573.7467,2.0077,mm2,Fdd2,43,orthorhombic,-180.7673,-0.6497,-0.3834,0D,,False,0.0,,-0.3834,-0.3834
147019,Ac3Br6Si14Sr9,61d3870043,Sr9Ac3(Si7Br3)2,"['Si', 'Br', 'Sr', 'Ac']",32,916.4774,4.2438,mm2,Pmm2,25,orthorhombic,-146.361,-1.0318,-0.0699,intercalated ion,0.0093,True,0.0,,-0.0699,-0.0654
147026,F15Pr1U2Y1,61d49b2654,PrYU2F15,"['F', 'Y', 'Pr', 'U']",19,317.5505,5.1814,m,Cm,8,monoclinic,-141.1108,-4.1373,-0.0075,3D,0.004,True,0.0,,-0.0075,-0.0073
147036,Ac1Br6La4Pr7Si14,61d5b4fc21,AcLa4Pr7(Si7Br3)2,"['Si', 'Br', 'La', 'Pr', 'Ac']",32,827.7102,5.2995,mm2,Pmm2,25,orthorhombic,-180.0184,-1.1535,-0.0335,3D,,False,0.0,,-0.0335,-0.0262
147098,As2Br12Pr12Si2,61e0997785,Pr6SiAsBr6,"['Si', 'As', 'Br', 'Pr']",28,895.0908,5.2979,222,F222,22,orthorhombic,-146.6562,-1.7669,-0.0717,3D,0.0021,True,0.0,,-0.0717,-0.0556
147099,Ce19Cl1Ho1Si15,61e104d3dd,Ce19HoSi15Cl,"['Si', 'Cl', 'Ce', 'Ho']",36,871.7979,6.2549,1,P1,1,triclinic,-227.8709,-0.7592,-0.0993,3D,,True,0.0,,-0.0993,-0.0868
147102,Gd5Ho1O14Rh2,61e2282194,Gd5Ho(RhO7)2,"['O', 'Rh', 'Gd', 'Ho']",22,297.6235,7.705,m,Pm,6,monoclinic,-226.5534,-3.0723,-0.0676,3D,0.0003,True,0.0,,-0.0676,-0.0591
147106,O10Sb3Ta1,61e305749c,TaSb3O10,"['O', 'Sb', 'Ta']",14,170.1468,6.8923,1,P1,1,triclinic,-103.9035,-2.1556,-0.01,3D,1.4332,True,0.0,,-0.01,-0.01
147184,O18P6Pb1Re1,61f0a0d29c,ReP6PbO18,"['O', 'P', 'Re', 'Pb']",26,436.6201,3.2983,32,P312,149,trigonal,-200.8805,-2.43,-0.0168,3D,1.5522,True,0.0,,-0.0168,-0.0145
147208,Cs6F16W2,61f3f37d66,Cs3WF8,"['F', 'Cs', 'W']",24,516.1937,4.7259,6mm,P6_3mc,186,hexagonal,-133.8183,-2.9977,-0.1421,intercalated ion,,True,0.0,,-0.1421,-0.0623
147215,Br7C2Sm5Tb1,61f5fd534b,TbSm5C2Br7,"['C', 'Br', 'Sm', 'Tb']",15,421.1295,5.8912,m,Cm,8,monoclinic,-82.6151,-1.6317,-0.1073,3D,0.0141,False,-0.0,,-0.1073,-0.0056
147224,Br12P2Sm1Tb7,61f7fed54b,Tb7Sm(PBr6)2,"['P', 'Br', 'Sm', 'Tb']",22,743.8727,5.0977,m,Pm,6,monoclinic,-112.9124,-2.0583,-0.1184,3D,0.0085,True,0.0,,-0.1184,-0.0216
147226,Cl14F6Ta4,61f836fb3e,Ta2Cl7F3,"['F', 'Cl', 'Ta']",24,744.9426,2.9739,2,C2,5,monoclinic,-142.1552,-2.3907,-0.0193,0D,3.1707,True,0.0,,-0.0193,-0.0008
147259,O16Pb1Sr3W4,61fe5c29bb,Sr3Pb(WO4)4,"['O', 'Sr', 'W', 'Pb']",24,378.1738,6.417,1,P1,1,triclinic,-201.9983,-2.5924,-0.0187,intercalated ion,3.3772,True,0.0,,-0.0187,-0.0187
147268,Bi1Br2Ho4La6Tl5,620118d7fe,La6Ho4Tl5BiBr2,"['Br', 'La', 'Ho', 'Tl', 'Bi']",18,550.1183,8.705,mm2,Amm2,38,orthorhombic,-80.3865,-0.7483,-0.0238,3D,,True,0.0,,-0.0238,-0.0222
147314,F8K4O32P8Rb4V8,620ab603fa,KRbV2P2(O4F)2,"['O', 'F', 'P', 'K', 'V', 'Rb']",64,918.4595,3.2861,mm2,Pna2_1,33,orthorhombic,-479.7982,-2.8411,-0.0249,intercalated ion,,True,0.0,,-0.0249,-0.0136
147351,Ac4Al4Ba4O16,6210f0d06d,BaAcAlO4,"['O', 'Al', 'Ba', 'Ac']",28,447.1707,6.763,222,P2_12_12_1,19,orthorhombic,-216.3287,-3.5007,-0.0295,intercalated ion,,False,0.0,,-0.0295,-0.0295
147370,F4Lu1O4Tb3,6213b90a9d,Tb3Lu(OF)4,"['O', 'F', 'Tb', 'Lu']",12,173.4371,7.5803,1,P1,1,triclinic,-97.3043,-4.2869,-0.0021,3D,4.838,True,0.0,,-0.0021,-0.0021
147391,Br2Ho7In6Tm3,6216c2300d,Ho7Tm3(In3Br)2,"['Br', 'In', 'Ho', 'Tm']",18,483.6406,8.618,32,P312,149,trigonal,-77.4383,-0.675,-0.0174,3D,0.0102,False,0.0,,-0.0174,-0.0056
147400,Nb4O20Te4Tl4,6217e660cc,NbTlTeO5,"['O', 'Nb', 'Te', 'Tl']",32,518.047,6.4734,mm2,Pna2_1,33,orthorhombic,-229.0801,-2.1155,-0.0179,intercalated ion,,True,0.0,,-0.0179,-0.0127
147405,Lu2O12Ru2Tm3,6218f2ba3c,Tm3Lu2(RuO6)2,"['O', 'Ru', 'Tm', 'Lu']",19,240.7358,8.6282,m,Cm,8,monoclinic,-161.2037,-3.2005,-0.0185,3D,0.0015,False,-0.0,,-0.0185,-0.0185
147424,Eu3O12Pu1Y3,621b62a5c2,Eu3Y3PuO12,"['O', 'Y', 'Eu', 'Pu']",19,293.3038,6.5594,3,R3,146,trigonal,-192.0878,-3.5878,-0.192,3D,,True,0.0,,-0.192,-0.0946
147459,O24Tb2V4W4Y2,622132563f,TbYV2(WO6)2,"['O', 'V', 'Y', 'Tb', 'W']",36,438.0143,6.8951,m,Pc,7,monoclinic,-332.4726,-2.8709,-0.0088,3D,1.6769,True,0.0,,-0.0088,-0.0037
147462,Bi3O10Rb1V2,6221922ca4,RbV2Bi3O10,"['O', 'V', 'Rb', 'Bi']",16,272.3055,5.9413,1,P1,1,triclinic,-113.7213,-2.0889,-0.0113,intercalated ion,2.9002,False,0.0,,-0.0113,-0.0054
147480,Ir3O24Pr5Sr3Te1,622401ca8c,Sr3Pr5Te(IrO8)3,"['O', 'Sr', 'Te', 'Pr', 'Ir']",36,550.7412,6.1979,1,P1,1,triclinic,-267.8833,-2.5139,-0.09,intercalated ion,,True,0.0,,-0.09,-0.0771
147547,Br12Ge2Ho5Tb3,6230aa768d,Tb3Ho5(GeBr6)2,"['Ge', 'Br', 'Tb', 'Ho']",22,757.0843,5.2762,m,Pm,6,monoclinic,-107.314,-1.8913,-0.0604,3D,0.0069,True,0.0,,-0.0604,-0.0137
147551,Ho5O12Os1V1,6231908b24,Ho5VOsO12,"['O', 'V', 'Ho', 'Os']",19,248.4085,8.4081,2,C2,5,monoclinic,-166.6605,-3.3717,-0.0217,3D,0.69,True,0.0,,-0.0217,-0.0217
147553,Ag1Eu4Li3O8,62322ade1a,Li3Eu4AgO8,"['Li', 'O', 'Ag', 'Eu']",16,226.6789,6.3332,m,Pm,6,monoclinic,-132.5667,-2.7035,-0.0991,intercalated ion,0.0079,True,0.0,,-0.0991,-0.0343
147580,Br18Cs6Rh3V1,62363877a9,Cs6V(RhBr6)3,"['V', 'Br', 'Rh', 'Cs']",28,1017.7845,4.2344,3m,P3m1,156,trigonal,-107.2274,-1.4719,-0.0605,intercalated ion,0.2315,True,0.0,,-0.0605,-0.0359
147598,Cl30Ru4Sb2,62399c8caf,SbRu2Cl15,"['Cl', 'Ru', 'Sb']",36,1165.4724,2.4384,2,C2,5,monoclinic,-136.5608,-0.993,-0.16,0D,0.4683,True,0.0,,-0.16,-0.0019
147629,Gd3La2Nb2O14Tb1,623f1df3f5,La2TbGd3Nb2O14,"['O', 'Nb', 'La', 'Gd', 'Tb']",22,315.941,6.9287,m,Pm,6,monoclinic,-228.4037,-3.7361,-0.0142,3D,2.4527,True,0.0,,-0.0142,-0.0095
147665,Ag1Au4Eu1O8,6246657752,EuAg(AuO2)4,"['O', 'Ag', 'Eu', 'Au']",14,201.7892,9.6749,-4,I-4,82,tetragonal,-80.1822,-1.027,-0.0689,3D,,False,0.0,,-0.0689,-0.0491
147673,Ca1O10Sr1Ti4,6247fa0f09,SrCaTi4O10,"['O', 'Ca', 'Ti', 'Sr']",16,220.8361,3.603,mm2,Pmm2,25,orthorhombic,-141.4742,-3.5448,-0.0047,intercalated ion,2.9514,True,0.0,,-0.0047,-0.0006
147714,Ca5Np2O12Y1,624f310813,Ca5YNp2O12,"['O', 'Ca', 'Y', 'Np']",20,312.4091,5.0776,1,P1,1,triclinic,-176.0388,-3.7137,-0.3565,intercalated ion,0.0028,True,-0.0,,-0.3565,-0.2513
147771,O18P6Pb1Ti1,6259753ac8,TiP6PbO18,"['O', 'P', 'Ti', 'Pb']",26,437.7798,2.7648,32,P312,149,trigonal,-202.5097,-2.6676,-0.0102,3D,2.6886,True,0.0,,-0.0102,-0.0093
147795,Cl6Cs3Lu1,625d346660,Cs3LuCl6,"['Cl', 'Cs', 'Lu']",10,397.3998,3.286,3,R3,146,trigonal,-43.4221,-2.5124,-0.0522,intercalated ion,5.0599,True,0.0,,-0.0522,-0.0088
147837,Ba1F20Ga4Sr3,626460f332,BaSr3Ga4F20,"['F', 'Ga', 'Sr', 'Ba']",28,400.9614,4.3859,1,P1,1,triclinic,-155.5319,-3.5072,-0.0041,intercalated ion,5.6053,True,-0.0,,-0.0041,-0.0035
147888,Au2Ho1O14Tm5,626baf99bb,HoTm5(AuO7)2,"['O', 'Ho', 'Tm', 'Au']",22,286.6826,9.427,2,C2,5,monoclinic,-167.2316,-2.9296,-0.0412,3D,0.1965,True,0.0,,-0.0412,-0.0275
147897,Cl2Gd1H2Tb1,626d2495af,TbGd(HCl)2,"['H', 'Cl', 'Gd', 'Tb']",6,123.0437,5.2511,3m,R3m,160,trigonal,-38.9783,-1.6309,-0.0141,2D,0.005,True,0.0,,-0.0141,-0.001
147941,As6Bi2O24Pb6,62769ddd51,BiAs3(PbO4)3,"['O', 'As', 'Pb', 'Bi']",38,650.0126,6.373,m,Cc,9,monoclinic,-243.7455,-1.7627,-0.0171,3D,3.0936,False,-0.0,,-0.0171,-0.0165
147946,As8La8O8Rh2Ru6,6277a58db8,La4As4Ru3RhO4,"['O', 'As', 'Ru', 'Rh', 'La']",32,588.8821,7.4749,-42m,P-4m2,115,tetragonal,-255.0126,-2.1342,-0.114,3D,0.0211,True,0.0,,-0.114,-0.0152
147966,Cs1F37,627b84eff5,CsF37,"['F', 'Cs']",38,746.4888,1.8593,1,P1,1,triclinic,-93.7994,-0.5837,-0.4341,intercalated ion,,True,0.0,,-0.4341,-0.401
147974,Br35Pa1,627c684925,PaBr35,"['Br', 'Pa']",36,1793.7135,2.8029,1,P1,1,triclinic,-93.5416,-0.7426,-0.4276,0D,,True,0.0,,-0.4276,-0.4275
147989,Br16In4K3Tl1,627e93a146,K3Tl(InBr4)4,"['K', 'Br', 'In', 'Tl']",24,971.7757,3.5191,2,P2,3,monoclinic,-77.9981,-1.4628,-0.0051,intercalated ion,,True,0.0,,-0.0051,-0.005
148031,Hf16O4Pt1Rh7,6286cf0168,Hf16PtRh7O4,"['O', 'Rh', 'Hf', 'Pt']",28,472.69,13.4731,3m,R3m,160,trigonal,-276.8619,-1.4334,-0.0337,3D,0.0106,True,0.0,,-0.0337,-0.0225
148055,As4Eu2F36Sb4,628c385e6c,EuSb2As2F18,"['F', 'As', 'Sb', 'Eu']",46,818.8688,3.5986,m,Pc,7,monoclinic,-255.0101,-2.8361,-0.053,2D,,True,0.0,,-0.053,-0.0372
148059,Ag2F11Np2O1,628cab9589,Np2Ag2OF11,"['O', 'F', 'Ag', 'Np']",16,283.459,5.3585,m,Cm,8,monoclinic,-105.6346,-3.0062,-0.0349,3D,,False,0.0,,-0.0349,-0.0347
148060,As1F36K16O16P3Ti8,628ccf0c71,K16Ti8AsP3(O4F9)4,"['O', 'F', 'P', 'K', 'Ti', 'As']",80,1306.2725,2.6902,1,P1,1,triclinic,-514.8806,-3.3134,-0.005,intercalated ion,,True,0.0,,-0.005,-0.0049
148062,Gd6O14Os1Ta1,628d33723e,Gd6TaOsO14,"['O', 'Gd', 'Ta', 'Os']",22,307.3649,8.3127,2,C2,5,monoclinic,-253.4802,-3.4849,-0.0059,3D,0.6199,True,0.0,,-0.0059,-0.0013
148076,Cu4Na1O8Tm1,628ff3e57d,NaTm(CuO2)4,"['O', 'Na', 'Cu', 'Tm']",14,149.4807,6.3775,-4,I-4,82,tetragonal,-84.5438,-1.6257,-0.0402,intercalated ion,,True,0.0,,-0.0402,-0.0394
148099,B2Br15Pr9Tb1,62936f66c3,TbPr9B2Br15,"['B', 'Br', 'Pr', 'Tb']",27,899.7563,4.8857,1,P1,1,triclinic,-135.2681,-1.8405,-0.0253,3D,0.0027,True,0.0,,-0.0253,-0.0246
148109,Nb1O14Sb3Th2,6295237653,Th2NbSb3O14,"['O', 'Nb', 'Sb', 'Th']",20,260.3157,7.3119,m,Cm,8,monoclinic,-161.961,-2.7687,-0.0089,3D,1.8308,True,0.0,,-0.0089,-0.0066
148119,Br18Cs2Nb5Pb1Ta1,62965925a9,Cs2TaNb5PbBr18,"['Br', 'Nb', 'Cs', 'Ta', 'Pb']",27,845.9351,5.0188,1,P1,1,triclinic,-135.8051,-1.4249,-0.0257,intercalated ion,,True,0.0,,-0.0257,-0.0256
148123,F8H3Pa1,6296ba3136,PaH3F8,"['H', 'F', 'Pa']",12,189.8972,3.3758,1,P1,1,triclinic,-70.2409,-2.938,-2.0905,intercalated molecule,,True,0.0,,-2.0905,-0.8717
148151,Cs3O27V3W6,629b9f2eb7,CsVW2O9,"['O', 'V', 'Cs', 'W']",39,561.111,6.1749,1,P1,1,triclinic,-330.1663,-2.2791,-0.0039,intercalated ion,,True,0.0,,-0.0039,-0.0039
148244,As1Eu2O8W1,62acf95047,Eu2AsWO8,"['O', 'As', 'Eu', 'W']",12,188.3509,6.0892,-42m,I-4m2,119,tetragonal,-109.647,-2.6552,-0.1038,3D,2.2186,False,0.0,,-0.1038,-0.0149
148274,Cl18K1Nb6Sm1,62b2ddb498,KSm(NbCl3)6,"['Cl', 'K', 'Nb', 'Sm']",26,678.576,3.3893,3,R3,146,trigonal,-149.2594,-1.9057,-0.0064,intercalated ion,1.0657,True,0.0,,-0.0064,-0.0064
148278,Ir1O4Ti12Zn7,62b30f9522,Ti12Zn7IrO4,"['O', 'Ti', 'Zn', 'Ir']",24,321.362,6.6578,3,R3,146,trigonal,-161.5385,-1.2227,-0.047,3D,0.0048,True,0.0,,-0.047,-0.0315
148289,Au4Br24Pr3Th1,62b5336ba1,Pr3Th(AuBr6)4,"['Br', 'Pr', 'Au', 'Th']",32,1178.9408,4.733,1,P1,1,triclinic,-121.7077,-1.4865,-0.0241,3D,0.0025,True,0.0,,-0.0241,-0.0212
148311,Au1F7H4,62b8ff5b1f,H4AuF7,"['H', 'F', 'Au']",12,145.165,3.8205,1,P1,1,triclinic,-49.3673,-1.5952,-0.0249,2D,,True,-0.0,,-0.0249,-0.009
148319,Eu1O24Sc1Tm6W4,62ba8a437a,EuTm6Sc(WO6)4,"['O', 'Sc', 'Eu', 'Tm', 'W']",36,446.3738,8.6673,1,P1,1,triclinic,-333.4589,-3.3165,-0.0598,3D,0.5263,True,0.0,,-0.0598,-0.0488
148356,Br2Os1Pa2Si1,62c0a7e719,Pa2SiOsBr2,"['Si', 'Br', 'Os', 'Pa']",6,165.0577,8.4527,3m,P3m1,156,trigonal,-45.7821,-1.1377,-0.2048,2D,,True,0.0,,-0.2048,-0.0468
148381,O12Pd1Rh1Y5,62c583eaa3,Y5PdRhO12,"['O', 'Y', 'Rh', 'Pd']",19,257.2499,5.4599,2,C2,5,monoclinic,-160.8596,-2.9793,-0.059,3D,0.3707,False,0.0,,-0.059,-0.0405
148391,Eu1F30Np6Y1,62c79511c4,EuYNp6F30,"['F', 'Y', 'Eu', 'Np']",38,617.3778,6.0055,2,C2,5,monoclinic,-301.171,-3.9311,-0.0276,3D,,True,0.0,,-0.0276,-0.0179
148417,B2C2Cl12Pr12,62cc1d8a01,Pr6BCCl6,"['B', 'C', 'Cl', 'Pr']",28,731.1731,4.91,222,F222,22,orthorhombic,-160.3038,-1.7478,-0.0402,3D,0.0105,False,-0.0,,-0.0402,-0.0113
148444,Bi4Hf2O14Pb2,62cf21cd7a,HfBi2PbO7,"['O', 'Hf', 'Pb', 'Bi']",22,337.2991,9.0155,m,Cc,9,monoclinic,-160.924,-2.216,-0.0152,3D,1.963,True,-0.0,,-0.0152,-0.0143
148450,F10Pm3,62cfd867fd,Pm3F10,"['F', 'Pm']",13,204.1299,5.0841,1,P1,1,triclinic,-86.2212,-4.0658,-0.1742,3D,0.3169,True,0.0,,-0.1742,-0.1742
148475,Ir1O18Ru5Sr4,62d42c76f2,Sr4IrRu5O18,"['O', 'Sr', 'Ru', 'Ir']",28,396.2404,5.599,2,C2,5,monoclinic,-207.1241,-2.0033,-0.0141,intercalated ion,0.0043,True,0.0,,-0.0141,-0.0128
148513,F28Ho4Ru1V3,62d965a352,Ho4V3RuF28,"['F', 'V', 'Ru', 'Ho']",36,512.1823,4.6867,1,P1,1,triclinic,-236.0999,-3.5479,-0.0331,3D,,True,0.0,,-0.0331,-0.0306
148528,Gd5La3Np4O24,62dbf91880,La3Gd5Np4O24,"['O', 'La', 'Gd', 'Np']",36,520.0907,8.0936,2,P2,3,monoclinic,-389.886,-3.7237,-0.2251,3D,,True,0.0,,-0.2251,-0.1962
148588,Br16Ga4Pb2,62e6044c6e,Ga2PbBr8,"['Ga', 'Br', 'Pb']",22,919.9283,3.5592,m,Pc,7,monoclinic,-73.8342,-1.2775,-0.027,2D,3.3856,True,0.0,,-0.027,-0.024
148680,Nb1O24P6Sb1Se2,62f5a23f01,NbSbP6(SeO12)2,"['O', 'P', 'Se', 'Nb', 'Sb']",34,473.0393,3.3082,1,P1,1,triclinic,-250.3755,-2.2918,-0.0122,intercalated ion,2.5734,True,0.0,,-0.0122,-0.0122
148750,La3Mo1O12Pr3,6302e9f381,La3Pr3MoO12,"['O', 'Mo', 'La', 'Pr']",19,305.2277,6.1333,1,P1,1,triclinic,-165.7607,-3.4941,-0.0041,3D,2.4998,True,0.0,,-0.0041,-0.0041
148793,Nb20O38Si2Tl2,6309e7963f,Nb10TlSiO19,"['O', 'Si', 'Nb', 'Tl']",62,788.3881,6.1735,6,P6_3,173,hexagonal,-575.2952,-2.7367,-0.0142,intercalated ion,,True,0.0,,-0.0142,-0.0137
148817,Br3S24Y1,630dc89141,Y(S8Br)3,"['S', 'Br', 'Y']",28,856.1169,2.13,3m,R3m,160,trigonal,-130.9365,-0.7244,-0.3935,0D,,False,-0.0,,-0.3935,-0.3856
148827,Al1O24P6U3,63103a312d,U3Al(PO4)6,"['O', 'Al', 'P', 'U']",34,557.3914,3.9053,3,R3,146,trigonal,-295.297,-3.1308,-0.0489,3D,,True,-0.0,,-0.0489,-0.0489
148892,B1Br17Pr12Zn1,631c73c41b,Pr12ZnBBr17,"['B', 'Zn', 'Br', 'Pr']",31,1025.119,5.0628,1,P1,1,triclinic,-148.444,-1.7841,-0.0177,3D,,True,0.0,,-0.0177,-0.0153
148897,Br4Cd2Cs4I4,631d93e2b6,Cs2Cd(IBr)2,"['Br', 'Cd', 'I', 'Cs']",14,702.7368,3.7422,mm2,Ama2,40,orthorhombic,-40.1366,-1.5761,-0.0084,intercalated ion,3.245,True,0.0,,-0.0084,-0.0063
148961,Cl2Hg1O2Pb1Sr1,63284c4305,SrHgPb(ClO)2,"['O', 'Cl', 'Sr', 'Hg', 'Pb']",7,161.3056,6.1593,m,Cm,8,monoclinic,-32.6291,-1.9043,-0.0437,intercalated ion,,True,0.0,,-0.0437,-0.0215
148967,F28Hf3Pr4Zr1,632984bdb0,Pr4Hf3ZrF28,"['F', 'Zr', 'Pr', 'Hf']",36,609.744,4.6904,1,P1,1,triclinic,-265.2614,-4.2833,-0.0045,3D,6.139,True,0.0,,-0.0045,-0.0038
148987,Br18Cs6In3Tm1,632c52b625,Cs6Tm(InBr6)3,"['Br', 'In', 'Cs', 'Tm']",28,1114.4542,4.0962,3m,P3m1,156,trigonal,-98.0076,-1.8014,-0.069,intercalated ion,2.3977,True,0.0,,-0.069,-0.0585
148998,As2Cl1N8,632e559b5f,As2N8Cl,"['N', 'Cl', 'As']",11,391.1017,1.2625,1,P1,1,triclinic,-80.1192,-0.2055,-0.0628,0D,1.1771,True,0.0,,-0.0628,-0.0149
149001,Br20Ce1La3Rb8,632ecc6fdc,Rb8La3CeBr20,"['Br', 'Rb', 'La', 'Ce']",32,1191.6017,3.9558,m,Pm,6,monoclinic,-133.4459,-2.2538,-0.0008,intercalated ion,0.187,True,0.0,,-0.0008,-0.0008
149010,B3Br12Si1Sm12,63305836ce,Sm12Si(BBr4)3,"['B', 'Si', 'Br', 'Sm']",28,782.7487,5.9902,32,R32,155,trigonal,-144.2721,-1.5194,-0.0686,3D,0.0029,False,0.0,,-0.0686,-0.0627
149067,F7Rb3W1,633c066eb5,Rb3WF7,"['F', 'Rb', 'W']",11,227.5313,4.1835,m,Cm,8,monoclinic,-62.0319,-2.9774,-0.2151,intercalated ion,4.1659,True,0.0,,-0.2151,-0.0056
149083,Al4Br16Sn2,633db8a818,Al2SnBr8,"['Al', 'Br', 'Sn']",22,916.6782,2.9415,m,Pc,7,monoclinic,-81.0777,-1.4493,-0.0348,0D,3.602,True,0.0,,-0.0348,-0.0348
149111,As1F12Os1Sr1,63431d1366,SrAsOsF12,"['F', 'As', 'Sr', 'Os']",15,272.0014,3.5454,1,P1,1,triclinic,-81.0988,-2.7057,-0.0822,intercalated ion,,True,0.0,,-0.0822,-0.0819
149141,Al1Ga5O1Si8Sr13,6348355d94,Sr13AlGa5Si8O,"['O', 'Al', 'Si', 'Ga', 'Sr']",28,779.6439,3.7386,m,Cm,8,monoclinic,-107.1014,-0.6393,-0.0118,intercalated ion,0.0063,True,0.0,,-0.0118,-0.0044
149159,F16Ir4O4,634bb39395,IrOF4,"['O', 'F', 'Ir']",24,422.873,4.4641,-4,I-4,82,tetragonal,-125.7579,-1.6679,-0.0282,0D,0.3998,True,0.0,,-0.0282,-0.0094
149200,Al1Br2Th2Zn1,63516c86c6,Th2AlZnBr2,"['Al', 'Zn', 'Br', 'Th']",6,182.8773,6.5038,3m,P3m1,156,trigonal,-29.8842,-1.1295,-0.0389,2D,,True,0.0,,-0.0389,-0.0195
149241,Eu1O16Sc8Sr3,635842d240,Sr3EuSc8O16,"['O', 'Sc', 'Sr', 'Eu']",28,356.1848,4.804,m,Pm,6,monoclinic,-249.9324,-3.7409,-0.005,intercalated ion,0.1726,True,0.0,,-0.005,-0.0028
149313,Ge1O2P1Pr2Rh2,6363e9d650,Pr2GeP(RhO)2,"['O', 'P', 'Ge', 'Rh', 'Pr']",8,142.0065,7.2878,4mm,P4mm,99,tetragonal,-61.0557,-2.1041,-0.0222,3D,,True,0.0,,-0.0222,-0.0171
149328,F28Ru4Sm2Y2,6366a76cb1,SmYRu2F14,"['F', 'Y', 'Ru', 'Sm']",36,543.1934,4.3249,2,P2_1,4,monoclinic,-224.7993,-3.1058,-0.0314,3D,0.0002,True,0.0,,-0.0314,-0.0271
149371,Cl6Rb1V2,636e58177b,Rb(VCl3)2,"['Cl', 'V', 'Rb']",9,268.3866,2.4753,1,P1,1,triclinic,-46.8431,-1.8448,-0.0501,intercalated ion,,True,0.0,,-0.0501,-0.045
149372,F28Hf1Pt3Tb3Y1,636e7c89df,Tb3YHfPt3F28,"['F', 'Y', 'Tb', 'Hf', 'Pt']",36,537.8511,5.7467,1,P1,1,triclinic,-219.8038,-3.2706,-0.0019,3D,2.4108,True,0.0,,-0.0019,-0.0012
149435,F5H9,6379154a7d,H9F5,"['H', 'F']",14,143.6922,1.2026,1,P1,1,triclinic,-57.9026,-1.2722,-0.0138,0D,8.8469,True,0.0,,-0.0138,-0.001
149538,As1Ce2Cu2O2P1,638bdc2592,Ce2Cu2AsPO2,"['O', 'P', 'Cu', 'As', 'Ce']",8,126.6715,7.1473,4mm,P4mm,99,tetragonal,-56.0881,-2.0069,-0.0993,3D,0.0013,True,0.0,,-0.0993,-0.0007
149555,C2Cl10Pr5Tb1,638f0616f9,TbPr5(CCl5)2,"['C', 'Cl', 'Pr', 'Tb']",18,525.1974,3.9269,1,P1,1,triclinic,-105.0689,-2.1995,-0.044,3D,0.6524,False,0.0,,-0.044,-0.0242
149556,F24In6Li2Ti4,638f085724,LiTi2In3F12,"['Li', 'F', 'Ti', 'In']",36,655.562,3.4201,-42m,P-42_1c,114,tetragonal,-209.6788,-3.1081,-0.0566,intercalated ion,2.0704,True,0.0,,-0.0566,-0.0126
149595,Cl18Pt3Zn3,6399a735d7,ZnPtCl6,"['Cl', 'Zn', 'Pt']",24,671.4832,3.5107,32,P3_112,151,trigonal,-83.3507,-1.1702,-0.1585,2D,,True,0.0,,-0.1585,-0.0404
149633,Al4O24Sn4W4,63a08212df,AlSnWO6,"['O', 'Al', 'Sn', 'W']",36,403.1502,7.0108,mm2,P4_2nm,102,tetragonal,-291.5179,-2.4976,-0.0061,3D,2.9793,True,0.0,,-0.0061,-0.0061
149683,Cl18Hf1Mo1V2,63a9daa8f5,HfV2MoCl18,"['Cl', 'V', 'Mo', 'Hf']",22,696.4111,2.4189,1,P1,1,triclinic,-109.0347,-1.6723,-0.0004,0D,,False,0.0,,-0.0004,0.0
149704,Ba12Cu3O27Rh6,63acb76fa7,Ba4CuRh2O9,"['O', 'Cu', 'Rh', 'Ba']",48,753.5656,6.3639,1,P1,1,triclinic,-316.0854,-2.1454,-0.007,intercalated ion,,True,0.0,,-0.007,-0.0057
149721,Br1Cl3O1U1,63af392425,UBrCl3O,"['O', 'Cl', 'Br', 'U']",6,201.3079,3.6319,m,Cm,8,monoclinic,-37.2869,-2.3108,-0.0435,1D,1.2719,True,0.0,,-0.0435,-0.035
149723,F30Pr1U5Y2,63af92ef8b,PrY2U5F30,"['F', 'Y', 'Pr', 'U']",38,603.2515,5.7222,2,C2,5,monoclinic,-287.5628,-4.1065,-0.0101,3D,,True,0.0,,-0.0101,-0.0098
149728,As1Br16Ga4Hg11P3,63aff89a29,Ga4Hg11AsP3Br16,"['P', 'Ga', 'As', 'Br', 'Hg']",35,1186.5419,5.5023,m,Cm,8,monoclinic,-89.9032,-0.7817,-0.0409,intercalated molecule,1.213,True,0.0,,-0.0409,-0.0407
149752,As1Gd2O2P1Zn2,63b345f98c,Gd2Zn2AsPO2,"['O', 'P', 'Zn', 'As', 'Gd']",8,141.9736,6.8213,3m,R3m,160,trigonal,-67.0707,-2.0538,-0.0983,3D,0.5775,True,0.0,,-0.0983,-0.0339
149782,Li2O16Sm1W4Y1,63b6d43df5,Li2SmY(WO4)4,"['Li', 'O', 'Y', 'Sm', 'W']",24,311.3823,6.6367,2,P2,3,monoclinic,-209.6573,-2.6523,-0.0035,intercalated ion,inf,True,0.0,,-0.0035,-0.0003
149799,Bi3La2O14Sb2Tl1,63b9805db5,La2TlBi3(SbO7)2,"['O', 'Sb', 'La', 'Tl', 'Bi']",22,323.0789,8.1035,m,Pm,6,monoclinic,-151.0754,-2.2565,-0.0091,3D,,True,0.0,,-0.0091,-0.0091
149817,O15Pd5Rb6,63bd55646d,Rb6(PdO3)5,"['O', 'Rb', 'Pd']",26,476.8973,4.474,32,R32,155,trigonal,-136.148,-1.1595,-0.1933,intercalated ion,,True,-0.0,,-0.1933,-0.0907
149845,Ho1O18Se6Sm2Tm1,63c37c3be8,Sm2HoTm(SeO3)6,"['O', 'Se', 'Sm', 'Ho', 'Tm']",28,450.2736,5.1495,1,P1,1,triclinic,-194.032,-2.3392,-0.0355,3D,4.0818,False,0.0,,-0.0355,-0.0163
149865,Bi4F28Pt3V1,63c79753cd,VBi4Pt3F28,"['F', 'V', 'Pt', 'Bi']",36,555.5734,5.9899,1,P1,1,triclinic,-181.5704,-2.3665,-0.0595,3D,1.9299,True,0.0,,-0.0595,-0.0594
149872,Au4Lu1O12Pr3,63c9b47c3f,Pr3Lu(AuO3)4,"['O', 'Pr', 'Lu', 'Au']",20,295.3729,8.8687,m,Pm,6,monoclinic,-136.0257,-2.2345,-0.0889,3D,,True,0.0,,-0.0889,-0.0137
149921,Ba2Cl2O8Tc2,63d1896dbc,BaTcClO4,"['O', 'Cl', 'Tc', 'Ba']",14,273.3069,4.068,mm2,Pmn2_1,31,orthorhombic,-102.2843,-2.4603,-0.2636,intercalated ion,2.6804,True,-0.0,,-0.2636,-0.2448