Unnamed: 0,Composition,MaterialId,Reduced Formula,Elements,NSites,Volume,Density,Point Group,Space Group,Space Group Number,Crystal System,Corrected Energy,Formation Energy Per Atom,Decomposition Energy Per Atom,Dimensionality Cheon,Bandgap,Is Train,Decomposition Energy Per Atom All,Decomposition Energy Per Atom Relative,Decomposition Energy Per Atom MP,Decomposition Energy Per Atom MP OQMD
133485,O26Se8Ta4,58da4273d0,Ta2Se4O13,"['O', 'Se', 'Ta']",38,576.9495,5.0985,m,Pc,7,monoclinic,-279.3382,-1.9814,-0.0229,3D,2.7526,True,0.0,,-0.0229,-0.0229
133494,Al6O2Zn6Zr12,58dcd7e8cc,Zr6Al3Zn3O,"['O', 'Al', 'Zn', 'Zr']",26,449.6674,6.2077,mm2,Imm2,44,orthorhombic,-164.4067,-0.8426,-0.0487,3D,0.0064,True,0.0,,-0.0487,-0.0427
133546,Cl18K1Ta6Tb1,58e4908008,KTbTa6Cl18,"['Cl', 'K', 'Tb', 'Ta']",26,674.574,4.7309,3,R3,146,trigonal,-159.7554,-1.9073,-0.0027,intercalated ion,1.45,True,0.0,,-0.0027,-0.0015
133565,F28Tm3V4Y1,58e71cab2c,YTm3V4F28,"['F', 'V', 'Y', 'Tm']",36,503.3132,4.3927,1,P1,1,triclinic,-242.6694,-3.6922,-0.1551,3D,1.997,True,0.0,,-0.1551,-0.0293
133593,Br12Ir1Pr1Sr1Tb5,58eb5223c1,SrTb5PrIrBr12,"['Br', 'Sr', 'Pr', 'Tb', 'Ir']",20,702.4875,5.1394,1,P1,1,triclinic,-99.1847,-2.053,-0.008,intercalated ion,,True,0.0,,-0.008,-0.0077
133600,O16Rh2Sc2Sr8,58ecda3188,Sr4ScRhO8,"['O', 'Sc', 'Sr', 'Rh']",28,411.2671,5.0578,m,Cc,9,monoclinic,-199.6701,-2.8426,-0.0414,intercalated ion,0.0007,False,0.0,,-0.0414,-0.0371
133603,Ac3Br2Ir2Pr1,58edd8e657,Ac3Pr(IrBr)2,"['Br', 'Pr', 'Ir', 'Ac']",8,264.182,8.5871,3m,P3m1,156,trigonal,-48.5692,-1.3093,-0.2227,intercalated ion,0.0201,False,0.0,,-0.2227,-0.1866
133611,Ca1O12Pb1Rh2Sr6,58eee896ca,Sr6CaRh2PbO12,"['O', 'Ca', 'Sr', 'Rh', 'Pb']",22,324.0135,6.0003,32,R32,155,trigonal,-145.7439,-2.5357,-0.026,intercalated ion,0.0752,True,0.0,,-0.026,-0.0259
133629,Cl11F1V6,58f1e8830d,V6Cl11F,"['F', 'Cl', 'V']",18,394.6366,3.007,mm2,Amm2,38,orthorhombic,-108.4854,-1.7631,-0.0803,3D,,False,0.0,,-0.0803,-0.0787
133705,Bi1Br2Pr10Sn5,58ffc06327,Pr10Sn5BiBr2,"['Br', 'Sn', 'Pr', 'Bi']",18,550.8713,7.1484,mm2,Amm2,38,orthorhombic,-93.1814,-1.0089,-0.0491,3D,0.0003,True,0.0,,-0.0491,-0.0468
133711,F28Tb3Y1Zr4,5900ac6e47,Tb3YZr4F28,"['F', 'Y', 'Zr', 'Tb']",36,574.2205,4.2294,1,P1,1,triclinic,-260.5683,-4.2357,-0.0052,3D,6.0284,True,0.0,,-0.0052,-0.0037
133716,Cl12Pr12Pt2Rh2,590161250d,Pr6PtRhCl6,"['Cl', 'Rh', 'Pr', 'Pt']",28,849.5309,5.3016,222,F222,22,orthorhombic,-158.8951,-1.874,-0.0193,3D,0.0085,True,-0.0,,-0.0193,-0.0188
133754,Br7C2Tb1Tm5,590982111e,TbTm5C2Br7,"['C', 'Br', 'Tb', 'Tm']",15,379.2397,6.9486,m,Cm,8,monoclinic,-81.8625,-1.6625,-0.1154,3D,0.0084,True,0.0,,-0.1154,-0.0096
133781,Hg8O4Tb3Y1,590d202e7b,Tb3Y(Hg2O)4,"['O', 'Y', 'Tb', 'Hg']",16,345.5768,10.7366,m,Pm,6,monoclinic,-71.4109,-1.8013,-0.0206,3D,0.0199,True,0.0,,-0.0206,-0.0187
133786,F28Lu3Y1Zr4,590e6fe605,YLu3Zr4F28,"['F', 'Y', 'Zr', 'Lu']",36,551.7495,4.5465,1,P1,1,triclinic,-260.2177,-4.2354,-0.0055,3D,,True,0.0,,-0.0055,-0.0034
133793,Cs1In1O8Sn3,590f3bbc3f,CsInSn3O8,"['O', 'In', 'Sn', 'Cs']",13,194.4861,6.2486,1,P1,1,triclinic,-82.2793,-2.0784,-0.0392,inf,1.5199,True,0.0,,-0.0392,-0.0392
133825,Au1F20Nb2Ta1,59160ca3c5,TaNb2AuF20,"['F', 'Nb', 'Ta', 'Au']",24,420.3266,3.7282,1,P1,1,triclinic,-142.252,-2.862,-0.0072,1D,,True,0.0,,-0.0072,-0.0068
133871,Gd3O20Pr4Si4Tb1,591d1fa526,TbPr4Gd3(SiO5)4,"['O', 'Si', 'Pr', 'Gd', 'Tb']",32,441.7426,6.1146,1,P1,1,triclinic,-306.1255,-3.7337,-0.028,3D,3.4075,False,0.0,,-0.028,-0.0029
133885,F6Hg1,59206a53bc,HgF6,"['F', 'Hg']",7,142.3365,3.67,1,P1,1,triclinic,-18.8228,-1.0072,-0.2757,intercalated molecule,1.0104,False,0.0,,-0.2757,-0.0778
133904,Br12P3Pr12Si1,592329c97a,Pr12Si(PBr4)3,"['Si', 'P', 'Br', 'Pr']",28,871.2961,5.2806,32,R32,155,trigonal,-150.3212,-1.8444,-0.0344,3D,0.0073,True,0.0,,-0.0344,-0.0264
133913,Ir3O4Pd5Zr16,592513b972,Zr16Ir3Pd5O4,"['O', 'Zr', 'Pd', 'Ir']",28,496.8125,8.7983,3m,R3m,160,trigonal,-246.0922,-1.3258,-0.0224,3D,0.0032,True,0.0,,-0.0224,-0.0114
133941,As3Br18Cs6Ir1,5929a7b2e7,Cs6As3IrBr18,"['As', 'Br', 'Cs', 'Ir']",28,1060.9851,4.1517,3m,P3m1,156,trigonal,-97.1935,-1.4122,-0.0606,intercalated ion,1.9019,True,0.0,,-0.0606,-0.008
133953,Ge4Mg2O12Rb4,592c0ca2bd,Rb2Mg(GeO3)2,"['O', 'Mg', 'Ge', 'Rb']",22,375.6584,3.8591,222,C222_1,20,orthorhombic,-135.797,-2.3094,-0.0209,intercalated ion,3.3802,True,0.0,,-0.0209,-0.015
133966,F36Sn1Th1,592e8001b4,ThSnF36,"['F', 'Sn', 'Th']",38,695.0941,2.4718,1,P1,1,triclinic,-125.4934,-1.191,-0.2424,intercalated molecule,,True,0.0,,-0.2424,-0.2424
133971,Ca4La4O24Sb4Sr4,592f6a40b2,SrCaLaSbO6,"['O', 'Ca', 'Sr', 'Sb', 'La']",40,580.98,5.5375,m,Pc,7,monoclinic,-293.6766,-3.0971,-0.0515,intercalated ion,3.6414,False,0.0,,-0.0515,-0.0003
133990,O14P4Tm1U1,5932462ead,TmU(P2O7)2,"['O', 'P', 'Tm', 'U']",20,328.5635,3.815,1,P1,1,triclinic,-169.1569,-3.1232,-0.0247,3D,0.7845,True,-0.0,,-0.0247,-0.0247
133993,H9K3O1,5932c5ac3f,K3H9O,"['H', 'O', 'K']",13,204.7381,1.1547,1,P1,1,triclinic,-45.2392,-0.4943,-0.0486,intercalated ion,,True,0.0,,-0.0486,-0.0477
134005,Br6N2Pr8Se6,59344ef45b,Pr4Se3Br3N,"['N', 'Se', 'Br', 'Pr']",22,601.7148,5.8187,6mm,P6_3mc,186,hexagonal,-133.4315,-2.1688,-0.0768,3D,2.5654,True,0.0,,-0.0768,-0.0161
134050,Cl16Ti1V3,593a2742b8,TiV3Cl16,"['Cl', 'Ti', 'V']",20,767.346,1.6618,1,P1,1,triclinic,-99.7111,-1.7494,-0.0004,0D,0.0001,False,0.0,,-0.0004,-0.0004
134081,Cl18Nb3Ta3Y1,593f937e99,YTa3(NbCl6)3,"['Cl', 'Y', 'Nb', 'Ta']",25,674.0541,3.815,1,P1,1,triclinic,-152.7989,-1.8873,-0.0112,3D,0.1301,False,0.0,,-0.0112,-0.0104
134100,Ir3O12Os2Rh1,594247052f,Ir3Os2RhO12,"['O', 'Rh', 'Os', 'Ir']",18,197.6512,10.5186,mm2,Cmm2,35,orthorhombic,-139.6965,-1.3326,-0.0505,3D,0.0041,True,0.0,,-0.0505,-0.0467
134118,F8Ir2Na2O4,5944d41eed,NaIr(OF2)2,"['O', 'F', 'Na', 'Ir']",16,252.9895,4.2427,m,Cc,9,monoclinic,-85.3441,-1.8712,-0.0914,intercalated ion,,True,0.0,,-0.0914,-0.0703
134148,Ag6C1Lu1O11,5949c21ee3,LuAg6CO11,"['C', 'O', 'Ag', 'Lu']",19,253.81,6.6091,3m,R3m,160,trigonal,-106.8628,-1.1417,-0.0244,3D,0.0025,True,0.0,,-0.0244,-0.0243
134320,Bi5O14Tb1W2,5969041b14,TbBi5(WO7)2,"['O', 'Tb', 'W', 'Bi']",22,330.2406,9.0283,1,P1,1,triclinic,-166.2323,-2.1345,-0.0085,3D,2.0419,True,-0.0,,-0.0085,-0.0084
134354,C4Ce3Cl2Pu1,596e514df4,Ce3Pu(C2Cl)2,"['C', 'Cl', 'Ce', 'Pu']",10,187.5429,6.9355,1,P1,1,triclinic,-82.2903,-0.9619,-0.0178,3D,0.0004,True,0.0,,-0.0178,-0.0078
134417,F28Pr4Rh2Ru2,59785a8f6b,Pr2RuRhF14,"['F', 'Ru', 'Rh', 'Pr']",36,573.6357,4.3524,2,P2_1,4,monoclinic,-215.7686,-3.0513,-0.0087,3D,0.0036,False,0.0,,-0.0087,-0.0086
134421,F28Ho3Pt3Tc1Y1,5978e9ac54,YHo3TcPt3F28,"['F', 'Y', 'Tc', 'Ho', 'Pt']",36,524.183,5.6987,1,P1,1,triclinic,-211.3732,-3.0296,-0.0161,3D,1.5524,True,0.0,,-0.0161,-0.0147
134427,Ho2Ir2La2O14Tb2,597a0af428,LaTbHoIrO7,"['O', 'La', 'Tb', 'Ho', 'Ir']",22,299.7202,8.4985,mm2,Ama2,40,orthorhombic,-184.1298,-3.1307,-0.0446,3D,0.001,True,-0.0,,-0.0446,-0.0357
134455,Br12La9Pr1Si4Sm2,597dea4c4f,La9PrSm2(SiBr3)4,"['Si', 'Br', 'La', 'Pr', 'Sm']",28,916.0993,5.0082,1,P1,1,triclinic,-148.2166,-1.7225,-0.0245,3D,,True,0.0,,-0.0245,-0.0214
134526,Br15S1Tb1Th5,5988d6ccd2,TbTh5SBr15,"['S', 'Br', 'Tb', 'Th']",22,772.0807,5.4838,4mm,I4mm,107,tetragonal,-117.2567,-2.1301,-0.0487,3D,1.0924,True,0.0,,-0.0487,-0.0248
134556,Bi3La4O24Te4Tl1,598e0eaaa6,La4TlBi3(TeO6)4,"['O', 'Te', 'La', 'Tl', 'Bi']",36,543.9878,6.9638,1,P1,1,triclinic,-247.5669,-2.2907,-0.0205,3D,1.9841,True,0.0,,-0.0205,-0.0194
134563,Al1Ga1O2Ti6,598edb9170,Ti6AlGaO2,"['O', 'Al', 'Ti', 'Ga']",10,137.7496,5.0136,mm2,Amm2,38,orthorhombic,-78.4854,-1.4443,-0.047,3D,0.0086,True,0.0,,-0.047,-0.0314
134586,Gd2In1O12Rh1Tb4,5991daeaee,Tb4Gd2InRhO12,"['O', 'Rh', 'In', 'Gd', 'Tb']",20,292.5463,7.7191,1,P1,1,triclinic,-183.7644,-3.3792,-0.0163,3D,2.0914,True,0.0,,-0.0163,-0.0134
134617,Bi1O24Pr7W4,599806e6a9,Pr7Bi(WO6)4,"['O', 'Pr', 'W', 'Bi']",36,537.4001,7.1522,1,P1,1,triclinic,-318.0737,-3.0593,-0.0271,3D,3.3314,True,-0.0,,-0.0271,-0.0271
134627,Cs1H4O40P12Tl3V4,5999d743ba,CsTl3V4P12(HO10)4,"['H', 'O', 'P', 'V', 'Cs', 'Tl']",64,933.6033,3.4959,2,P2,3,monoclinic,-480.0743,-2.4892,-0.0267,intercalated ion,,False,-0.0,,-0.0267,-0.0235
134637,Eu4O14Sb1Sc2W1,599b78c3b4,Eu4Sc2SbWO14,"['O', 'Sc', 'Sb', 'Eu', 'W']",22,299.0509,6.8152,2,C2,5,monoclinic,-212.1943,-3.2728,-0.2139,3D,0.0012,True,0.0,,-0.2139,-0.1626
134671,Cs1O8,59a0d00e0e,CsO8,"['O', 'Cs']",9,190.2536,2.2771,1,P1,1,triclinic,-44.5751,-0.4551,-0.1285,intercalated ion,0.019,True,0.0,,-0.1285,-0.1191
134686,Ba10O20Rh4,59a3deb502,Ba5(RhO5)2,"['O', 'Rh', 'Ba']",34,572.4393,6.1059,mm2,Cmc2_1,36,orthorhombic,-225.6131,-2.2943,-0.046,intercalated ion,0.002,True,0.0,,-0.046,-0.0434
134693,Na1O25P2Tc7,59a4e4eced,NaTc7P2O25,"['O', 'Na', 'P', 'Tc']",35,467.338,4.1605,1,P1,1,triclinic,-280.2814,-2.0545,-0.0463,intercalated ion,0.001,True,-0.0,,-0.0463,-0.0463
134712,F1O11Pr6U1,59a937d6ec,Pr6UO11F,"['O', 'F', 'Pr', 'U']",19,312.3396,6.7969,1,P1,1,triclinic,-169.8616,-3.8708,-0.0761,3D,0.891,True,0.0,,-0.0761,-0.0485
134812,Br10Pa1Ta1,59b96baf62,PaTaBr10,"['Br', 'Ta', 'Pa']",12,518.0708,3.8816,1,P1,1,triclinic,-57.4264,-1.6404,-0.0007,intercalated ion,2.0505,True,0.0,,-0.0007,-0.0007
134939,O16Os3Ru1Tb4,59cd4c6ebb,Tb4Os3RuO16,"['O', 'Ru', 'Tb', 'Os']",24,303.8946,8.543,1,P1,1,triclinic,-201.6385,-2.5407,-0.0284,3D,0.0033,True,0.0,,-0.0284,-0.0225
134962,F10Ga1,59d03cf53c,GaF10,"['F', 'Ga']",11,170.3491,2.5316,1,P1,1,triclinic,-35.9529,-1.2555,-0.1902,intercalated molecule,0.0016,False,0.0,,-0.1902,-0.1893
134990,As2F1N11,59d56419a1,As2N11F,"['N', 'F', 'As']",14,394.8297,1.3581,1,P1,1,triclinic,-107.4208,-0.3207,-0.0848,0D,1.673,True,0.0,,-0.0848,-0.0475
134995,Cs1O8Sc1Sn3,59d75aa325,CsScSn3O8,"['O', 'Sc', 'Sn', 'Cs']",13,190.5132,5.77,m,Cm,8,monoclinic,-90.7182,-2.4522,-0.0337,inf,1.8855,True,0.0,,-0.0337,-0.0337
135017,O13Pb4Rh1Ru3,59dab1cd70,Ru3RhPb4O13,"['O', 'Ru', 'Rh', 'Pb']",21,278.9541,8.5892,3m,R3m,160,trigonal,-145.6772,-1.4912,-0.0231,3D,0.0001,True,0.0,,-0.0231,-0.0231
135062,F2Na6S6Si2,59e2f26d63,Na3SiS3F,"['F', 'Na', 'Si', 'S']",16,338.9719,2.0795,mm2,Cmc2_1,36,orthorhombic,-74.7008,-1.7046,-0.0665,intercalated ion,3.1545,True,0.0,,-0.0665,-0.0247
135065,Cl36Ga9La3,59e331d2ca,La(GaCl4)3,"['Cl', 'Ga', 'La']",48,1643.7065,2.3443,32,P3_121,152,trigonal,-200.0613,-1.9053,-0.0126,1D,,True,0.0,,-0.0126,-0.0124
135089,Ba3Cs4Li4O28P8Sr1,59e6c02911,Cs4Ba3SrLi4(P2O7)4,"['Li', 'O', 'P', 'Sr', 'Cs', 'Ba']",48,826.8121,3.5242,1,P1,1,triclinic,-341.9455,-2.9465,-0.0052,intercalated ion,,True,0.0,,-0.0052,-0.0016
135108,B8Ce1O20U3,59e931a0e9,CeU3(B2O5)4,"['B', 'O', 'Ce', 'U']",32,307.6172,6.8052,1,P1,1,triclinic,-296.469,-3.2584,-0.0687,3D,,True,0.0,,-0.0687,-0.0486
135130,Gd1Lu1O7Si2,59ecf7a879,GdLuSi2O7,"['O', 'Si', 'Gd', 'Lu']",11,145.1048,5.7263,2,C2,5,monoclinic,-104.5676,-3.6804,-0.0027,3D,3.4755,True,0.0,,-0.0027,-0.0003
135174,F16I2K6,59f44f4048,K3IF8,"['F', 'K', 'I']",24,412.1221,3.1927,6mm,P6_3mc,186,hexagonal,-101.3902,-2.5457,-0.0717,intercalated ion,3.3266,True,0.0,,-0.0717,-0.0474
135193,Cl30Hf1Np5,59f76f30b1,HfNp5Cl30,"['Cl', 'Hf', 'Np']",36,1472.4878,2.737,2,C2,5,monoclinic,-201.9504,-1.9944,-0.3314,0D,,True,0.0,,-0.3314,-0.1961
135197,B1Br18Hf4K3Rb1Zr2,59f84d9e8b,K3RbHf4Zr2BBr18,"['B', 'K', 'Br', 'Rb', 'Zr', 'Hf']",29,1004.5489,4.2123,1,P1,1,triclinic,-150.6937,-1.8384,-0.0536,0D,,True,0.0,,-0.0536,-0.0411
135207,Al8Ca8O36Sn4Zr4,59f964941e,Ca2ZrAl2SnO9,"['O', 'Al', 'Ca', 'Zr', 'Sn']",60,773.0469,4.1934,mm2,Pnc2,30,orthorhombic,-471.584,-3.287,-0.0077,intercalated ion,3.131,True,-0.0,,-0.0077,-0.0077
135255,O14Pr1W2Y5,5a01fd0fe9,PrY5(WO7)2,"['O', 'Y', 'Pr', 'W']",22,303.4643,6.4411,2,C2,5,monoclinic,-208.3014,-3.4546,-0.0175,3D,2.4173,True,-0.0,,-0.0175,-0.0175
135280,Br10Hg8Se4Sm2,5a074a5ae4,SmHg4Se2Br5,"['Se', 'Br', 'Sm', 'Hg']",24,844.4529,5.9392,2,P2_1,4,monoclinic,-69.8759,-1.1523,-0.0088,3D,2.119,False,0.0,,-0.0088,-0.0058
135345,Br10Ir1La3Y3,5a1359b533,La3Y3IrBr10,"['Br', 'Y', 'La', 'Ir']",17,622.2491,4.4691,1,P1,1,triclinic,-93.9825,-2.0334,-0.0051,3D,0.0021,False,0.0,,-0.0051,-0.005
135360,Cs3Na4O40P8Rb1Ti8,5a1512f6eb,Cs3RbNa4Ti8(PO5)8,"['O', 'Na', 'P', 'Ti', 'Rb', 'Cs']",64,889.6787,3.447,1,P1,1,triclinic,-506.1937,-3.0133,-0.0024,intercalated ion,,True,0.0,,-0.0024,-0.0024
135402,Eu1Ga4O8Rb1,5a19f2ccba,RbEu(GaO2)4,"['O', 'Ga', 'Rb', 'Eu']",14,196.2614,5.4515,mm2,Imm2,44,orthorhombic,-97.0422,-2.4338,-0.0316,intercalated ion,,True,-0.0,,-0.0316,-0.0056
135455,Ho6La1O24Pr1W4,5a225d543d,LaPrHo6(WO6)4,"['O', 'La', 'Pr', 'Ho', 'W']",36,474.4489,8.3604,2,P2,3,monoclinic,-326.9568,-3.3101,-0.0078,3D,3.6088,True,0.0,,-0.0078,-0.0075
135475,Br18Mg3Pt3,5a260fcefc,MgPtBr6,"['Mg', 'Br', 'Pt']",24,814.7666,4.2727,32,P3_112,151,trigonal,-80.0328,-1.1481,-0.1197,2D,,True,0.0,,-0.1197,-0.0294
135481,Cs2O14Pa2Zn8,5a28001202,CsPaZn4O7,"['O', 'Zn', 'Cs', 'Pa']",26,371.0194,6.6022,6mm,P6_3mc,186,hexagonal,-163.7381,-2.4449,-0.0092,intercalated ion,,False,0.0,,-0.0092,-0.0057
135518,Cl30Os5Re1,5a2f559c24,Re(OsCl6)5,"['Cl', 'Re', 'Os']",36,1158.6882,3.1542,1,P1,1,triclinic,-157.7209,-0.9357,-0.1214,0D,,True,0.0,,-0.1214,-0.1197
135550,F28Tm1Y3Zr4,5a35280ef0,Y3TmZr4F28,"['F', 'Y', 'Zr', 'Tm']",36,566.7361,3.9042,1,P1,1,triclinic,-263.812,-4.2285,-0.005,3D,6.0079,True,0.0,,-0.005,-0.0047
135566,Ac1F15Pa3,5a371e9634,AcPa3F15,"['F', 'Ac', 'Pa']",19,348.5665,5.7409,3m,R3m,160,trigonal,-142.0638,-4.2488,-3.3192,3D,,True,0.0,,-3.3192,-1.0071
135723,Ba2Cu2O10Sm2Sr2,5a51eaa08a,BaSrSmCuO5,"['O', 'Cu', 'Sr', 'Ba', 'Sm']",18,258.0092,6.6786,mm2,Pmc2_1,26,orthorhombic,-123.6191,-2.7382,-0.0179,2D,,True,0.0,,-0.0179,-0.0134
135755,Ho2O14Sm1Ta2Y3,5a580a50f9,SmY3Ho2Ta2O14,"['O', 'Y', 'Sm', 'Ho', 'Ta']",22,301.0797,7.3509,1,P1,1,triclinic,-210.9545,-3.8493,-0.0032,3D,3.5079,True,0.0,,-0.0032,-0.0032
135775,Gd1Li12O48Sm11Te8,5a5c6ba13f,Li12Sm11Gd(TeO6)8,"['Li', 'O', 'Te', 'Sm', 'Gd']",80,995.8515,6.1417,222,F222,22,orthorhombic,-571.1129,-2.7447,-0.0382,intercalated ion,inf,True,0.0,,-0.0382,-0.032
135820,F24Hf1Th2Zr3,5a661f3606,HfTh2Zr3F24,"['F', 'Zr', 'Hf', 'Th']",30,423.5368,5.3799,m,Cm,8,monoclinic,-222.3094,-4.2002,-0.0033,3D,5.4923,False,0.0,,-0.0033,-0.0032
135886,As1Br2Pu1Sm1,5a7256430e,SmPuAsBr2,"['As', 'Br', 'Sm', 'Pu']",5,163.4472,6.3912,3m,P3m1,156,trigonal,-35.7108,-1.7583,-0.048,2D,0.0016,True,0.0,,-0.048,-0.0074
135898,La3O14Pr1Sm2Ta2,5a75765d8e,La3PrSm2Ta2O14,"['O', 'La', 'Pr', 'Sm', 'Ta']",22,330.9623,7.2462,m,Pm,6,monoclinic,-205.6947,-3.8037,-0.0059,3D,3.6567,True,0.0,,-0.0059,-0.0059
135969,O16Rh2Ru2Sr8,5a83f62c87,Sr4RuRhO8,"['O', 'Sr', 'Ru', 'Rh']",28,397.1957,5.7062,m,Cc,9,monoclinic,-194.3584,-2.4428,-0.0135,intercalated ion,0.0169,True,0.0,,-0.0135,-0.0109
135982,La2O14Sm2Ta2Y2,5a863bb267,LaSmYTaO7,"['O', 'Y', 'La', 'Sm', 'Ta']",22,315.4966,7.0645,mm2,Ama2,40,orthorhombic,-209.619,-3.8359,-0.0157,3D,,True,0.0,,-0.0157,-0.0157
135985,O24Pr8Pu3W1,5a8664a7bb,Pr8Pu3WO24,"['O', 'Pr', 'W', 'Pu']",36,575.5425,7.0026,1,P1,1,triclinic,-336.9463,-3.4496,-0.184,3D,,True,0.0,,-0.184,-0.0726
136007,Cs1F12U2,5a8a15d8ee,CsU2F12,"['F', 'Cs', 'U']",15,403.5352,3.444,1,P1,1,triclinic,-102.6941,-3.7519,-0.0035,intercalated ion,,True,0.0,,-0.0035,-0.0025
136017,B18Eu2Li2O30,5a8ced1dbf,LiEu(B3O5)3,"['Li', 'B', 'O', 'Eu']",52,599.9991,2.7465,3m,R3c,161,trigonal,-444.538,-2.9127,-0.0193,intercalated ion,,True,0.0,,-0.0193,-0.019
136047,F24Ir1Rh2Ru1,5a928cb464,IrRuRh2F24,"['F', 'Ru', 'Rh', 'Ir']",28,464.0749,3.4174,m,Pm,6,monoclinic,-127.5408,-1.7437,-0.0057,0D,0.0001,True,0.0,,-0.0057,-0.0024
136052,B18F1Na7,5a93050847,Na7B18F,"['B', 'F', 'Na']",26,266.7016,2.3319,mm2,Amm2,38,orthorhombic,-139.0462,-0.2942,-0.02,intercalated ion,,True,0.0,,-0.0195,-0.0186
136094,Ba1Br6Pa1,5a995c45fc,BaPaBr6,"['Br', 'Ba', 'Pa']",8,395.6203,3.5584,1,P1,1,triclinic,-38.5997,-2.1681,-0.0347,intercalated ion,,True,0.0,,-0.0347,-0.0161
136115,Na4Nb4O52P16,5a9cea93ad,NaNbP4O13,"['O', 'Na', 'P', 'Nb']",76,1094.6289,2.7171,222,P2_12_12_1,19,orthorhombic,-595.6405,-2.7108,-0.0003,intercalated ion,,True,0.0,,-0.0003,-0.0003
136139,Ho1O18Se6Sm3,5aa2595514,Sm3Ho(SeO3)6,"['O', 'Se', 'Sm', 'Ho']",28,460.7874,4.965,1,P1,1,triclinic,-193.9478,-2.3275,-0.0009,3D,4.0776,True,-0.0,,-0.0009,-0.0009
136161,N2Na1O10Pa5,5aa6857c51,NaPa5(NO5)2,"['N', 'O', 'Na', 'Pa']",18,223.13,10.1671,m,Cm,8,monoclinic,-180.031,-3.6099,-0.1795,intercalated ion,,True,0.0,,-0.1795,-0.1004
136166,Br35Zr1,5aa7444dec,ZrBr35,"['Br', 'Zr']",36,1793.7135,2.6735,1,P1,1,triclinic,-90.4083,-0.6824,-0.4335,0D,,True,0.0,,-0.4335,-0.4139
136211,F28Ho1Ru4Y3,5aae103b4f,Y3HoRu4F28,"['F', 'Y', 'Ru', 'Ho']",36,530.963,4.2779,1,P1,1,triclinic,-226.5483,-3.1097,-0.0351,3D,0.0007,True,0.0,,-0.0351,-0.0308
136229,O15Pr2S4,5ab0ac87a2,Pr2S4O15,"['O', 'S', 'Pr']",21,312.5127,3.4541,1,P1,1,triclinic,-151.2751,-2.4261,-0.0051,3D,5.0092,True,-0.0,,-0.0051,-0.0051
136248,Br18Cs6Lu3Rh1,5ab4ee4876,Cs6Lu3RhBr18,"['Br', 'Rh', 'Cs', 'Lu']",28,1098.1614,4.3299,3m,P3m1,156,trigonal,-112.7316,-2.0345,-0.084,intercalated ion,1.6782,False,0.0,,-0.084,-0.0507
136267,Br18Hf2Os1Ta1,5ab745ce9c,Hf2TaOsBr18,"['Br', 'Hf', 'Ta', 'Os']",22,859.2024,4.187,m,Pm,6,monoclinic,-102.8242,-1.38,-0.0537,0D,0.7952,False,0.0,,-0.0537,-0.0369
136271,Cs2Np2O12Sb2,5ab7e55b8f,CsNpSbO6,"['O', 'Sb', 'Cs', 'Np']",18,317.4853,6.1473,mm2,Ima2,46,orthorhombic,-142.7943,-2.6375,-0.1632,intercalated ion,0.2895,True,0.0,,-0.1632,-0.1383
136298,La2Lu3O14Sm1Ta2,5abca41d8a,La2SmLu3Ta2O14,"['O', 'La', 'Sm', 'Lu', 'Ta']",22,303.3126,8.4253,m,Pm,6,monoclinic,-206.5941,-3.8843,-0.0051,3D,3.5939,True,0.0,,-0.0051,-0.0051
136327,Ba6O15Pd4Tm1,5ac150f0b3,Ba6TmPd4O15,"['O', 'Pd', 'Ba', 'Tm']",26,424.2133,6.4923,1,P1,1,triclinic,-169.2617,-2.2436,-0.077,intercalated ion,0.4671,True,0.0,,-0.077,-0.0054
136356,Ba4Gd1O12Re1W1,5ac67b399e,Ba4GdReWO12,"['O', 'Ba', 'Gd', 'W', 'Re']",19,294.1857,7.1606,3m,R3m,160,trigonal,-163.0438,-2.9744,-0.0305,intercalated ion,1.9059,False,0.0,,-0.0305,-0.0275
136394,Ho5O12Pb1Ta1,5acc3eddc0,Ho5TaPbO12,"['O', 'Ho', 'Ta', 'Pb']",19,260.7055,8.9477,1,P1,1,triclinic,-164.9907,-3.5333,-0.0201,3D,1.9583,True,0.0,,-0.0201,-0.0201
136401,Li12O48Pr11Sm1W8,5acd853069,Li12Pr11Sm(WO6)8,"['Li', 'O', 'Pr', 'Sm', 'W']",80,1016.7321,6.5693,222,F222,22,orthorhombic,-659.0519,-2.9709,-0.0517,intercalated ion,,True,0.0,,-0.0517,-0.0475
136408,Br18Cs6Ir3Rh1,5acdcbe349,Cs6Ir3RhBr18,"['Br', 'Rh', 'Cs', 'Ir']",28,1046.8396,4.6243,3m,P3m1,156,trigonal,-106.1087,-1.3354,-0.0305,intercalated ion,1.1429,True,0.0,,-0.0305,-0.0166
136421,Ca1La3O20Ti8,5acfe97b66,CaLa3Ti8O20,"['O', 'Ca', 'Ti', 'La']",32,406.0779,4.7423,m,Pm,6,monoclinic,-295.0061,-3.6272,-0.0145,intercalated ion,0.0014,True,0.0,,-0.0145,-0.0144
136425,Cl2H4Ho1Tb1,5ad10843d0,TbHo(H2Cl)2,"['H', 'Cl', 'Tb', 'Ho']",8,128.9698,5.1346,3m,R3m,160,trigonal,-38.032,-1.4434,-0.0472,2D,1.7354,False,0.0,,-0.0472,-0.0128
136441,F34N1U1,5ad3c45e31,UNF34,"['N', 'F', 'U']",36,676.811,2.2032,1,P1,1,triclinic,-124.0127,-1.0943,-0.3492,intercalated ion,,True,-0.0,,-0.3492,-0.288
136485,In7K40O32Y1,5ad998f630,K40YIn7O32,"['O', 'K', 'Y', 'In']",80,1664.8342,2.9609,1,P1,1,triclinic,-359.4963,-1.6377,-0.012,intercalated ion,,True,0.0,,-0.012,-0.0058
136542,Nb1O8Sr2Tc1,5ae4c6fad0,Sr2NbTcO8,"['O', 'Sr', 'Nb', 'Tc']",12,183.9743,4.4601,-4,I-4,82,tetragonal,-97.5891,-2.847,-0.117,intercalated ion,1.2899,True,0.0,,-0.117,-0.1158
136593,Br1F8H5,5aebbd2ae0,H5BrF8,"['H', 'F', 'Br']",14,194.5265,2.0225,1,P1,1,triclinic,-56.5549,-1.6187,-0.053,0D,2.9122,False,0.0,,-0.053,-0.0355
136598,O4Pd1Ti12Zn7,5aecb58fab,Ti12Zn7PdO4,"['O', 'Ti', 'Zn', 'Pd']",24,322.1062,6.2001,3,R3,146,trigonal,-157.2267,-1.1955,-0.046,3D,0.0018,True,0.0,,-0.046,-0.0269
136599,Bi6O16P2V1,5aed30c4e7,VBi6(PO8)2,"['O', 'P', 'V', 'Bi']",25,355.9875,7.5695,2,C2,5,monoclinic,-175.9715,-2.1421,-0.0097,3D,2.1536,True,0.0,,-0.0097,-0.0015
136671,Ge1Ho5O12Rh1,5af840ff1c,Ho5GeRhO12,"['O', 'Ge', 'Rh', 'Ho']",19,247.456,8.0001,2,C2,5,monoclinic,-155.663,-3.231,-0.0266,3D,0.2577,True,0.0,,-0.0266,-0.0262