Unnamed: 0,Composition,MaterialId,Reduced Formula,Elements,NSites,Volume,Density,Point Group,Space Group,Space Group Number,Crystal System,Corrected Energy,Formation Energy Per Atom,Decomposition Energy Per Atom,Dimensionality Cheon,Bandgap,Is Train,Decomposition Energy Per Atom All,Decomposition Energy Per Atom Relative,Decomposition Energy Per Atom MP,Decomposition Energy Per Atom MP OQMD
63454,Cl3S24Sc1,2a4aef4473,Sc(S8Cl)3,"['S', 'Cl', 'Sc']",28,935.7429,1.6342,1,P1,1,triclinic,-132.4328,-0.76,-0.3916,0D,,True,0.0,,-0.3916,-0.3916
63458,Ga12Gd11O48Sc8Y1,2a4b4b0d22,Gd11YSc8(GaO4)12,"['O', 'Sc', 'Ga', 'Y', 'Gd']",80,1017.9736,6.1708,222,F222,22,orthorhombic,-755.6116,-3.3726,-0.0289,inf,,True,0.0,,-0.0289,-0.0268
63471,Br2Ga2Rb12Se8,2a4d4d78d2,Rb6GaSe4Br,"['Ga', 'Se', 'Br', 'Rb']",24,872.8918,3.722,6mm,P6_3mc,186,hexagonal,-82.4961,-1.393,-0.1193,intercalated ion,2.083,True,0.0,,-0.1193,-0.0122
63479,Cl4O16Pb6Sr2V4,2a4e8c4692,SrV2Pb3(ClO4)2,"['O', 'Cl', 'V', 'Sr', 'Pb']",32,601.9787,5.5721,mm2,Pma2,28,orthorhombic,-220.9367,-2.262,-0.0271,intercalated ion,3.133,True,0.0,,-0.0271,-0.018
63486,Br6Np1Pb1,2a500529a7,NpPbBr6,"['Br', 'Pb', 'Np']",8,351.232,4.3667,3,R3,146,trigonal,-39.2117,-1.5912,-0.2068,2D,,True,0.0,,-0.2068,-0.0444
63534,As1Ga1O1Si4Ti10,2a5689a766,Ti10GaSi4AsO,"['O', 'Si', 'Ti', 'Ga', 'As']",17,250.355,4.9855,1,P1,1,triclinic,-131.1678,-1.0516,-0.0601,3D,0.0017,True,0.0,,-0.0601,-0.0598
63574,Be1Br2Si1Tb2,2a5ce63521,Tb2BeSiBr2,"['Be', 'Si', 'Br', 'Tb']",6,150.1055,5.6945,3m,P3m1,156,trigonal,-30.1928,-1.4142,-0.059,intercalated ion,0.0011,True,0.0,,-0.059,-0.0322
63633,Br12Ca1La1Os1Tb5,2a6770ab74,CaLaTb5OsBr12,"['Ca', 'Br', 'La', 'Tb', 'Os']",20,690.7358,5.103,1,P1,1,triclinic,-101.0889,-2.0052,-0.0639,intercalated ion,0.3882,False,0.0,,-0.0639,-0.0321
63682,F8H5Sc1,2a707b6f23,ScH5F8,"['H', 'F', 'Sc']",14,182.682,1.836,1,P1,1,triclinic,-73.4778,-2.4921,-0.0532,intercalated molecule,6.1054,True,0.0,,-0.0532,-0.0362
63690,F1Rh1S1,2a716756ea,RhSF,"['F', 'S', 'Rh']",3,49.946,5.119,3m,P3m1,156,trigonal,-17.4143,-1.334,-0.0868,2D,1.2096,True,0.0,,-0.0868,-0.0868
63697,Ba1Be4La8O20Sr3,2a72509a95,BaSr3La8Be4O20,"['Be', 'O', 'Sr', 'Ba', 'La']",36,496.4164,6.2468,1,P1,1,triclinic,-287.1772,-3.5218,-0.0032,intercalated ion,3.9361,True,0.0,,-0.0032,-0.0008
63834,Cl12Os1Pr12Pt3,2a86b92377,Pr12Os(PtCl4)3,"['Cl', 'Pr', 'Os', 'Pt']",28,870.924,5.5136,32,R32,155,trigonal,-161.2181,-1.8652,-0.0269,3D,,True,0.0,,-0.0269,-0.0265
63843,Al1Ga7O4Ti12,2a87e60e44,Ti12AlGa7O4,"['O', 'Al', 'Ti', 'Ga']",24,324.337,5.9054,3,R3,146,trigonal,-171.3399,-1.3275,-0.049,3D,0.007,True,0.0,,-0.049,-0.0464
63933,Cl24Li8Pa3Zr1,2a96de69ab,Li8ZrPa3Cl24,"['Li', 'Cl', 'Zr', 'Pa']",36,949.481,2.9569,32,P312,149,trigonal,-177.785,-2.2509,-0.0108,intercalated ion,,True,0.0,,-0.0108,-0.0063
63942,Cu4Hg1O8Y1,2a98cab0b3,YCu4HgO8,"['O', 'Cu', 'Y', 'Hg']",14,159.1553,7.0079,-4,I-4,82,tetragonal,-83.0151,-1.4475,-0.0245,3D,0.0004,True,0.0,,-0.0245,-0.0245
63976,Br20Mo2Pa2,2a9dae15f7,PaMoBr10,"['Br', 'Mo', 'Pa']",24,985.0947,3.7962,2,P2_1,4,monoclinic,-107.1915,-1.4055,-0.134,0D,0.1758,True,0.0,,-0.134,-0.0002
63995,Bi6Ir2O18Sc1,2aa17df55a,ScBi6(IrO9)2,"['O', 'Sc', 'Ir', 'Bi']",27,392.1446,8.3473,3,P3,143,trigonal,-181.9895,-1.688,-0.061,3D,0.0033,True,0.0,,-0.061,-0.0481
64037,Ga12Gd3In8O48Y9,2aa884ace6,Gd3Y9In8(GaO4)12,"['O', 'Ga', 'Y', 'In', 'Gd']",80,1036.4371,6.0804,2,C2,5,monoclinic,-626.0211,-2.8718,-0.0031,inf,,True,0.0,,-0.0031,-0.0027
64048,F24Ir3Pu1,2aab4cccca,PuIr3F24,"['F', 'Ir', 'Pu']",28,468.235,4.5274,m,Pm,6,monoclinic,-147.8618,-2.1858,-0.1366,0D,0.0004,True,0.0,,-0.1366,-0.1339
64066,Au2Ho3Lu3O14,2aaeef2c15,Ho3Lu3(AuO7)2,"['O', 'Ho', 'Lu', 'Au']",22,286.179,9.5022,m,Pm,6,monoclinic,-167.6384,-2.9322,-0.0466,3D,,True,0.0,,-0.0466,-0.0294
64079,Br2I2Te4Th2,2ab08756fd,ThTe2IBr,"['Br', 'Te', 'I', 'Th']",10,434.2259,5.3083,2,C2,5,monoclinic,-48.7184,-1.4996,-0.0564,2D,1.0156,True,-0.0,,-0.0564,-0.0101
64081,Au1F34Te1,2ab0b340aa,TeAuF34,"['F', 'Te', 'Au']",36,696.6218,2.3134,1,P1,1,triclinic,-105.3858,-0.9438,-0.291,0D,,True,0.0,,-0.291,-0.274
64082,Ac2Bi4O9,2ab0cad925,Ac2Bi4O9,"['O', 'Bi', 'Ac']",15,270.4094,8.8054,1,P1,1,triclinic,-103.7754,-2.3628,-0.0218,3D,2.0124,True,0.0,,-0.0218,-0.0218
64115,F36Sb4Se4,2ab6fe5361,SbSeF9,"['F', 'Se', 'Sb']",44,704.4102,3.505,3,R3,146,trigonal,-204.5488,-2.3917,-0.0447,0D,,False,0.0,,-0.0447,-0.0435
64133,O4Pm2Rb2,2aba34d89d,RbPmO2,"['O', 'Rb', 'Pm']",8,194.7038,4.4769,mm2,Pmc2_1,26,orthorhombic,-53.9038,-2.8312,-0.0082,intercalated ion,2.6132,True,0.0,,-0.0082,-0.0082
64166,Ba6Ir2O18Ti4,2ac07f5063,Ba3Ti2IrO9,"['O', 'Ti', 'Ba', 'Ir']",30,413.5443,6.7774,6mm,P6_3mc,186,hexagonal,-240.2589,-3.0141,-0.0054,intercalated ion,0.0038,True,0.0,,-0.0054,-0.0049
64203,Ba2Ho3O20Si6Tm1,2ac6f24b8a,Ba2Ho3Tm(Si3O10)2,"['O', 'Si', 'Ba', 'Ho', 'Tm']",32,442.9867,5.3487,1,P1,1,triclinic,-269.2905,-3.6162,-0.017,intercalated ion,4.7785,True,0.0,,-0.017,-0.0061
64219,Mg1O9Ru1Sr3Ta1,2ac958d0f1,Sr3MgTaRuO9,"['O', 'Mg', 'Sr', 'Ru', 'Ta']",15,194.3244,6.0942,3m,P3m1,156,trigonal,-116.4017,-2.9379,-0.0085,intercalated ion,0.3705,False,0.0,,-0.0085,-0.006
64324,Br3In1S24,2ae055c691,In(S8Br)3,"['S', 'Br', 'In']",28,1072.8285,1.7399,3m,R3m,160,trigonal,-123.3104,-0.5848,-0.4074,0D,1.9675,True,0.0,,-0.4074,-0.4067
64331,Ir7O4Rh1Ti16,2ae139c913,Ti16Ir7RhO4,"['O', 'Ti', 'Rh', 'Ir']",28,396.985,9.5298,3m,R3m,160,trigonal,-254.6045,-1.4018,-0.0439,3D,0.0054,True,0.0,,-0.0439,-0.0129
64425,Bi1F28La3V4,2af38b1d55,La3V4BiF28,"['F', 'V', 'La', 'Bi']",36,570.1292,3.9652,1,P1,1,triclinic,-235.0461,-3.5136,-0.0367,3D,,True,0.0,,-0.0367,-0.0365
64471,La11Li12O48Ru8Sm1,2afb31e5e6,Li12La11Sm(RuO6)8,"['Li', 'O', 'Ru', 'La', 'Sm']",80,1016.7321,5.4519,222,F222,22,orthorhombic,-598.8771,-2.5653,-0.0429,intercalated ion,,False,0.0,,-0.0429,-0.0234
64517,As1Ca4O20Si3V4,2b03c8b5c1,Ca4V4Si3AsO20,"['O', 'Si', 'Ca', 'V', 'As']",32,383.1848,3.6542,1,P1,1,triclinic,-259.1527,-2.9656,-0.0058,intercalated ion,1.2557,True,0.0,,-0.0058,-0.0058
64553,Cl2P1Pu1Tm1,2b0af5ab56,TmPuPCl2,"['P', 'Cl', 'Tm', 'Pu']",5,136.223,6.2755,3m,P3m1,156,trigonal,-38.003,-2.0298,-0.0546,2D,,True,0.0,,-0.0546,-0.0141
64556,O6Pu1Rh1Sr1,2b0b914c86,SrPuRhO6,"['O', 'Sr', 'Rh', 'Pu']",9,139.3529,6.3217,32,P312,149,trigonal,-76.2296,-2.58,-0.0277,intercalated ion,,False,0.0,,-0.0277,-0.0255
64606,Hf1O8Pm2U1,2b1557933d,Pm2HfUO8,"['O', 'Pm', 'Hf', 'U']",12,153.1646,9.0474,-42m,I-4m2,119,tetragonal,-116.2126,-3.8233,-0.0152,3D,1.6639,True,0.0,,-0.0152,-0.014
64608,Br18Mg1Na5Np3,2b158cb36d,Na5Mg(NpBr6)3,"['Na', 'Mg', 'Br', 'Np']",27,907.6009,4.1871,2,C2,5,monoclinic,-127.5428,-1.8925,-0.1963,intercalated ion,,True,0.0,,-0.1963,-0.1013
64643,Br12Ga1Pr12Si3,2b1a920eec,Pr12Ga(SiBr4)3,"['Si', 'Ga', 'Br', 'Pr']",28,901.9313,5.1619,32,R32,155,trigonal,-142.6969,-1.6564,-0.1201,,0.0028,,0.0,,-0.1201,-0.0808
64657,Cl6K1Sc2,2b1c6224c3,KSc2Cl6,"['Cl', 'K', 'Sc']",9,273.0901,2.0779,1,P1,1,triclinic,-46.8738,-2.4453,-0.0112,intercalated ion,0.2589,True,0.0,,-0.0112,-0.0089
64662,Br12La12Rh2Ru2,2b1cd466be,La6RuRhBr6,"['Br', 'Ru', 'Rh', 'La']",28,915.5077,5.5024,222,F222,22,orthorhombic,-158.3427,-1.6496,-0.0324,3D,inf,False,-0.0,,-0.0324,-0.0323
64672,La2Mo6O24Sm2,2b1e23d4d8,LaSm(MoO4)3,"['O', 'Mo', 'La', 'Sm']",34,642.2661,3.9768,mm2,Cmm2,35,orthorhombic,-293.3793,-2.6543,-0.0133,3D,3.6533,True,0.0,,-0.0133,-0.0133
64679,Ag1Au2Br8K1O24,2b1f69142d,KAgAu2(BrO3)8,"['O', 'K', 'Br', 'Ag', 'Au']",36,702.5936,3.6967,1,P1,1,triclinic,-157.0824,-0.4096,-0.0769,intercalated ion,,True,0.0,,-0.0769,-0.0639
64710,Br10Gd1La5Ru1,2b26213a9b,La5GdRuBr10,"['Br', 'Ru', 'La', 'Gd']",17,658.4749,4.4179,1,P1,1,triclinic,-98.4586,-2.0023,-0.0244,3D,,True,0.0,,-0.0244,-0.0104
64724,Br12La1Na1Os1Pr5,2b287a4f50,NaLaPr5OsBr12,"['Na', 'Br', 'La', 'Pr', 'Os']",20,751.4986,4.4535,1,P1,1,triclinic,-100.5994,-1.9783,-0.008,intercalated ion,0.1824,True,0.0,,-0.008,-0.008
64767,Ge1Ir1O6Sr1,2b2e7c0997,SrGeIrO6,"['O', 'Ge', 'Sr', 'Ir']",9,125.6676,5.926,32,P312,149,trigonal,-62.8349,-1.9996,-0.0381,intercalated ion,0.0087,True,0.0,,-0.0381,-0.0055
64776,Cs1O8Sn3V1,2b2fd96e00,CsVSn3O8,"['O', 'V', 'Sn', 'Cs']",13,185.8118,5.9694,m,Cm,8,monoclinic,-89.9779,-2.1836,-0.0219,inf,0.6002,True,0.0,,-0.0219,-0.0074
64793,K6O15Rh5,2b3573ebbb,K6(RhO3)5,"['O', 'K', 'Rh']",26,426.2629,3.8531,32,R32,155,trigonal,-154.4325,-1.4127,-0.1644,intercalated ion,0.002,True,0.0,,-0.1644,-0.0238
64817,Br6Na1Sn1Y1,2b3a7713cb,NaYSnBr6,"['Na', 'Br', 'Y', 'Sn']",9,324.7832,3.6302,3,R3,146,trigonal,-38.0946,-1.8305,-0.0119,intercalated ion,3.4767,True,0.0,,-0.0119,-0.0096
64821,Br12Hf1Ti3,2b3af1ab5a,Hf(TiBr4)3,"['Ti', 'Br', 'Hf']",16,571.2887,3.7232,m,Pm,6,monoclinic,-80.4831,-1.6998,-0.0417,1D,0.005,True,-0.0,,-0.0417,-0.01
64837,Ca1Cd3O32P8Zr4,2b3e0868f6,CaZr4Cd3(PO4)8,"['O', 'P', 'Ca', 'Zr', 'Cd']",48,637.097,3.9148,m,Pm,6,monoclinic,-383.7213,-2.9816,-0.0005,intercalated ion,,True,0.0,,-0.0005,-0.0002
64936,Br4Cs1F2U1,2b51e481fd,CsU(Br2F)2,"['F', 'Br', 'Cs', 'U']",8,325.8255,3.713,1,P1,1,triclinic,-42.6472,-2.5112,-0.0512,intercalated ion,,True,0.0,,-0.0512,-0.0489
64963,Br20In8La1Pr3,2b586b656f,LaPr3(In2Br5)4,"['Br', 'In', 'La', 'Pr']",32,1100.3447,4.6454,m,Pm,6,monoclinic,-127.0657,-1.6573,-0.0183,intercalated ion,2.3914,False,0.0,,-0.0183,-0.0155
65003,O14Rb2Se4Ta2,2b5ee1b3d1,RbTaSe2O7,"['O', 'Se', 'Rb', 'Ta']",22,381.3853,4.6703,mm2,Cmc2_1,36,orthorhombic,-154.9199,-2.0904,-0.0586,intercalated ion,3.3638,True,0.0,,-0.0586,-0.0583
65009,Cl1Pr8Si15Tb12,2b5fea91fe,Tb12Pr8Si15Cl,"['Si', 'Cl', 'Pr', 'Tb']",36,888.8948,6.5217,1,P1,1,triclinic,-205.5234,-0.7899,-0.0363,3D,,True,0.0,,-0.0363,-0.0327
65109,C4Cd2O12Rb4,2b6f9f80f7,Rb2Cd(CO3)2,"['C', 'O', 'Rb', 'Cd']",22,402.2719,3.3301,mm2,Fdd2,43,orthorhombic,-145.0071,-1.9526,-0.0132,intercalated ion,3.0272,True,0.0,,-0.0132,-0.0132
65121,Br14Se2Tl2,2b71f14d27,TlSeBr7,"['Se', 'Br', 'Tl']",18,760.8847,3.6781,m,Pc,7,monoclinic,-48.6759,-0.7802,-0.1071,0D,,True,0.0,,-0.1071,-0.0122
65151,Al6Ba4O16Se1,2b76387d20,Ba4Al6SeO16,"['O', 'Al', 'Se', 'Ba']",27,465.6532,3.7306,-42m,I-4m2,119,tetragonal,-198.454,-3.1719,-0.0103,intercalated ion,3.5077,True,0.0,,-0.0103,-0.0103
65153,Ag4F24Na4Ti4,2b773be892,NaTiAgF6,"['F', 'Na', 'Ti', 'Ag']",36,557.5941,3.4869,222,P2_12_12_1,19,orthorhombic,-204.9137,-3.0788,-0.0305,intercalated ion,2.4793,True,0.0,,-0.0305,-0.0305
65236,Ho2O24Tb4W4Y2,2b85509da0,Tb2YHo(WO6)2,"['O', 'Y', 'Tb', 'Ho', 'W']",36,465.1062,8.0784,m,Pc,7,monoclinic,-330.2868,-3.3074,-0.002,3D,,False,0.0,,-0.002,-0.0019
65242,Br12Ho2In3K3,2b867befd2,K3Ho2(InBr4)3,"['K', 'Br', 'In', 'Ho']",20,774.3714,3.7536,1,P1,1,triclinic,-76.8934,-1.825,-0.038,intercalated ion,,True,0.0,,-0.038,-0.0021
65294,La3O2Pr7Sn6,2b922240a3,La3Pr7(Sn3O)2,"['O', 'Sn', 'La', 'Pr']",18,529.3621,6.7359,m,Cm,8,monoclinic,-106.0583,-1.3239,-0.0193,3D,,True,0.0,,-0.0193,-0.0148
65304,Br2In6Pr7Tb3,2b92927211,Tb3Pr7(In3Br)2,"['Br', 'In', 'Pr', 'Tb']",18,539.3448,7.1177,32,P312,149,trigonal,-79.7834,-0.7017,-0.0178,3D,0.0013,True,0.0,,-0.0178,-0.0161
65380,Br8Tc12Te14,2ba1f7ba18,Tc6Te7Br4,"['Br', 'Tc', 'Te']",34,1086.4791,5.5046,3m,R3c,161,trigonal,-205.0539,-0.6948,-0.1178,3D,,True,0.0,,-0.1178,-0.1017
65401,Ba6Cl2O30Ru6Sr4,2ba4e6d5b4,Ba3Sr2Ru3ClO15,"['O', 'Cl', 'Sr', 'Ru', 'Ba']",48,770.4503,5.0256,6mm,P6_3cm,185,hexagonal,-332.0949,-2.2092,-0.0832,intercalated ion,,False,0.0,,-0.0832,-0.0802
65450,Ga2O1Si4Ti10,2bae08f0b3,Ti10Ga2Si4O,"['O', 'Si', 'Ti', 'Ga']",17,251.9747,4.9192,m,Cm,8,monoclinic,-128.2585,-0.9764,-0.0513,3D,0.0037,True,0.0,,-0.0513,-0.0506
65469,Cu1F8H6,2bb1106940,CuH6F8,"['H', 'F', 'Cu']",15,151.3037,2.4318,1,P1,1,triclinic,-66.2141,-1.7644,-0.0458,1D,0.6428,True,0.0,,-0.0458,-0.0266
65473,Eu2Ho2O14Ta2Y2,2bb176ad49,EuYHoTaO7,"['O', 'Y', 'Eu', 'Ho', 'Ta']",22,301.4459,7.6982,2,P2_1,4,monoclinic,-217.3038,-3.7107,-0.0346,3D,,True,0.0,,-0.0346,-0.014
65514,Eu2La2Mg2O12Ta2,2bb7c737cc,LaEuMgTaO6,"['O', 'Mg', 'La', 'Eu', 'Ta']",20,259.1381,7.5885,m,Pc,7,monoclinic,-187.0852,-3.5169,-0.0215,3D,inf,True,0.0,,-0.0215,-0.0168
65532,Ag1Li1O24P6Sn4,2bbb70449e,LiAgSn4(PO4)6,"['Li', 'O', 'P', 'Ag', 'Sn']",36,487.8295,3.9468,1,P1,1,triclinic,-259.5168,-2.4307,-0.0077,intercalated ion,2.6826,True,0.0,,-0.0077,-0.0054
65578,Au1Na4O6Y1,2bc593ad75,Na4YAuO6,"['O', 'Na', 'Y', 'Au']",12,157.877,4.9837,2,C2,5,monoclinic,-67.5401,-1.9018,-0.0478,intercalated ion,1.59,True,0.0,,-0.0478,-0.0475
65599,O12Rh1Ru1Tb5,2bc92aa816,Tb5RuRhO12,"['O', 'Ru', 'Rh', 'Tb']",19,257.6579,7.6731,2,C2,5,monoclinic,-158.0946,-3.1004,-0.0183,3D,0.0019,False,0.0,,-0.0183,-0.0132
65628,Bi3La3O14Pr2,2bcf293dab,La3Pr2Bi3O14,"['O', 'La', 'Pr', 'Bi']",22,357.7393,7.1922,1,P1,1,triclinic,-168.4918,-2.8718,-0.0485,3D,1.5657,True,0.0,,-0.0485,-0.048
65672,Cl14F6Os4,2bd631ee59,Os2Cl7F3,"['F', 'Cl', 'Os']",24,705.9217,3.2256,2,C2,5,monoclinic,-112.5751,-1.2632,-0.1108,0D,0.5642,True,-0.0,,-0.1108,-0.1092
65743,O24Sc2Tb4V2W4,2be1b05f39,Tb2ScV(WO6)2,"['O', 'Sc', 'V', 'Tb', 'W']",36,445.1192,7.2628,m,Pc,7,monoclinic,-330.6512,-3.0749,-0.0209,3D,1.793,True,0.0,,-0.0209,-0.007
65764,Ac1Np4O24Pr7,2be4229ed4,AcPr7Np4O24,"['O', 'Pr', 'Ac', 'Np']",36,576.2302,7.335,1,P1,1,triclinic,-340.472,-3.6762,-0.2592,3D,,True,0.0,,-0.2592,-0.193
65773,Al6Ga2O4Ti12,2be556aeac,Ti6Al3GaO2,"['O', 'Al', 'Ti', 'Ga']",24,329.3225,4.7384,2,P2_1,4,monoclinic,-174.5278,-1.3109,-0.0593,3D,0.0025,True,0.0,,-0.0593,-0.0495
65794,Cd4In1O12Sb2Tl1,2be967a967,TlCd4In(SbO6)2,"['O', 'Cd', 'In', 'Sb', 'Tl']",20,283.8557,7.0454,1,P1,1,triclinic,-109.8087,-1.6685,-0.0164,3D,0.4392,False,0.0,,-0.0164,-0.0157
65801,F28Lu1Ru4Y3,2bea0f9a27,Y3LuRu4F28,"['F', 'Y', 'Ru', 'Lu']",36,527.8227,4.335,1,P1,1,triclinic,-226.4785,-3.1094,-0.0362,3D,0.0011,True,0.0,,-0.0362,-0.0256
65830,Br2N2Pa1Tm1,2bef95e876,TmPa(BrN)2,"['N', 'Br', 'Tm', 'Pa']",6,138.7497,7.0346,3m,R3m,160,trigonal,-46.6263,-2.1148,-0.2976,2D,1.9292,True,0.0,,-0.2976,-0.1736
65864,Br8Cu1Hg3O24,2bf6b49a4a,CuHg3(BrO3)8,"['O', 'Cu', 'Br', 'Hg']",36,629.4801,4.4543,1,P1,1,triclinic,-150.5997,-0.3817,-0.0883,3D,,True,0.0,,-0.0883,-0.0807
65917,Na1O25P2U7,2c0015cec0,NaU7P2O25,"['O', 'Na', 'P', 'U']",35,616.4356,5.7946,1,P1,1,triclinic,-336.2809,-3.4684,-0.0408,intercalated ion,0.212,False,0.0,,-0.0408,-0.0335
65970,Cl15P1Pa3Zr3,2c0c23e356,Zr3Pa3PCl15,"['P', 'Cl', 'Zr', 'Pa']",22,627.8463,4.0454,3m,R3m,160,trigonal,-135.667,-2.1972,-0.0383,2D,,True,0.0,,-0.0383,-0.0375
65979,As2B1Br12P1Pr12,2c0de006d3,Pr12BAs2PBr12,"['B', 'P', 'As', 'Br', 'Pr']",28,868.257,5.4341,2,C2,5,monoclinic,-148.2426,-1.7792,-0.0109,3D,0.0031,True,-0.0,,-0.0109,-0.0109
66005,Eu4Na4O24Se8,2c1286d59d,NaEu(SeO3)2,"['O', 'Na', 'Se', 'Eu']",40,618.209,4.6079,mm2,Pna2_1,33,orthorhombic,-273.0616,-1.9967,-0.0839,intercalated ion,,True,-0.0,,-0.0839,-0.0738
66023,La10Li12O48Pr2W8,2c14fbf43f,Li6La5Pr(WO6)4,"['Li', 'O', 'La', 'Pr', 'W']",80,1037.0907,6.3932,2,C2,5,monoclinic,-664.3059,-3.0164,-0.0354,intercalated ion,,True,0.0,,-0.0354,-0.0312
66038,Bi1Ir1O6Sr1,2c177dbdc4,SrBiIrO6,"['O', 'Sr', 'Ir', 'Bi']",9,141.786,6.8491,32,P312,149,trigonal,-60.5598,-1.8282,-0.1348,intercalated ion,0.0093,True,0.0,,-0.1348,-0.0984
66096,Ac2O8Ta2,2c2152e741,AcTaO4,"['O', 'Ta', 'Ac']",12,174.8392,8.9646,mm2,Cmc2_1,36,orthorhombic,-115.9932,-3.7043,-0.2005,3D,3.2762,True,0.0,,-0.2005,-0.2005
66156,Al12O48Pr11Sc8Y1,2c2b52a9e9,Pr11YSc8Al12O48,"['O', 'Al', 'Sc', 'Y', 'Pr']",80,1026.2988,5.0,222,F222,22,orthorhombic,-692.263,-3.7512,-0.0084,inf,3.6871,True,0.0,,-0.0084,-0.0084
66170,Nb4O48P12Sb2Ta2,2c2dc4dfbc,TaNb2Sb(PO4)6,"['O', 'P', 'Nb', 'Sb', 'Ta']",68,1002.7281,3.5053,1,P1,1,triclinic,-565.0019,-2.7965,-0.0015,3D,1.7859,True,0.0,,-0.0015,-0.0006
66201,Gd2O24Ru2Tm6W2,2c33db54b3,GdTm3RuWO12,"['O', 'Ru', 'Gd', 'Tm', 'W']",36,451.225,8.3976,m,Pc,7,monoclinic,-329.6782,-3.096,-0.0106,3D,0.3037,True,0.0,,-0.0106,-0.0088
66285,Bi2Nb4O48P12Ta2,2c42036936,TaNb2Bi(PO4)6,"['O', 'P', 'Nb', 'Ta', 'Bi']",68,1008.4836,3.7725,1,P1,1,triclinic,-565.738,-2.8143,-0.015,3D,,False,0.0,,-0.015,-0.0149
66322,Br12La12Pt2Ru2,2c48612064,La6RuPtBr6,"['Br', 'Ru', 'La', 'Pt']",28,933.3352,5.7253,222,F222,22,orthorhombic,-157.3657,-1.7071,-0.0336,3D,inf,True,0.0,,-0.0336,-0.0334
66328,F18Li6O9Re6,2c493fe9e9,Li2Re2(OF2)3,"['Li', 'O', 'F', 'Re']",39,562.8728,4.8525,32,P3_121,152,trigonal,-268.7773,-2.6594,-0.1159,intercalated ion,0.001,True,0.0,,-0.1159,-0.0819
66331,Br4C6Ca3Sr3,2c49d3fc4f,Sr3Ca3(C3Br2)2,"['C', 'Ca', 'Br', 'Sr']",16,340.54,3.7779,m,Cm,8,monoclinic,-88.8975,-0.994,-0.0353,intercalated ion,,True,0.0,,-0.0353,-0.034
66372,O24Os1Pb8V5,2c50c0a271,V5Os(PbO3)8,"['O', 'V', 'Os', 'Pb']",38,701.3,5.8876,-4,I-4,82,tetragonal,-280.9939,-1.9972,-0.0096,intercalated molecule,0.462,True,0.0,,-0.0096,-0.0063
66403,F1La6O11Pu1,2c56b55db6,La6PuO11F,"['O', 'F', 'La', 'Pu']",19,319.9053,6.6048,1,P1,1,triclinic,-174.0959,-3.8881,-0.0902,3D,,True,0.0,,-0.0902,-0.0222
66428,Ir1O14Ru1Sr6Ti2,2c5aa98da8,Sr6Ti2IrRuO14,"['O', 'Ti', 'Sr', 'Ru', 'Ir']",24,321.9077,5.8741,2,C2,5,monoclinic,-183.0637,-2.9063,-0.0089,intercalated ion,0.0055,True,-0.0,,-0.0089,-0.0044
66505,F28Hf1Pt3Tm1Y3,2c6606bff0,Y3TmHfPt3F28,"['F', 'Y', 'Tm', 'Hf', 'Pt']",36,529.7322,5.4272,1,P1,1,triclinic,-223.0018,-3.2621,-0.0016,3D,2.4275,True,0.0,,-0.0016,-0.0013
66542,Br12La12Pd2Rh2,2c6bcd3bc8,La6PdRhBr6,"['Br', 'Rh', 'Pd', 'La']",28,916.7516,5.5143,222,F222,22,orthorhombic,-151.0691,-1.6823,-0.035,3D,,True,0.0,,-0.035,-0.0347
66575,Ir1K1O8Rh3,2c71e75423,KIrRh3O8,"['O', 'K', 'Rh', 'Ir']",13,161.594,6.8646,m,Cm,8,monoclinic,-88.9956,-1.3362,-0.05,intercalated ion,0.0098,True,0.0,,-0.05,-0.05
66582,As4Cu4La1O2Pr2,2c72ab46e0,LaPr2Cu4(As2O)2,"['O', 'Cu', 'As', 'La', 'Pr']",13,236.5957,7.0647,4mm,I4mm,107,tetragonal,-77.9585,-1.4255,-0.0494,3D,,True,0.0,,-0.0494,-0.0103
66594,Cs1Ga11O17,2c73e45b38,CsGa11O17,"['O', 'Ga', 'Cs']",29,367.4712,5.2954,3m,R3m,160,trigonal,-183.7802,-2.2573,-0.0108,intercalated ion,2.315,True,0.0,,-0.0108,-0.0108
66609,Br15H8Sc1Th5,2c75a2f8b6,Th5ScH8Br15,"['H', 'Sc', 'Br', 'Th']",29,721.3292,5.552,4mm,I4mm,107,tetragonal,-142.0934,-1.6205,-0.0117,3D,,True,0.0,,-0.0117,-0.0036
66629,Br12La1Na1Pr5Rh1,2c77f7245e,NaLaPr5RhBr12,"['Na', 'Br', 'Rh', 'La', 'Pr']",20,747.5212,4.2833,1,P1,1,triclinic,-97.5338,-2.0182,-0.0064,intercalated ion,0.0768,False,0.0,,-0.0064,-0.0063
66693,O14P4Te1W1,2c8489f21c,TeP4WO14,"['O', 'P', 'Te', 'W']",20,299.028,3.6613,1,P1,1,triclinic,-155.0878,-2.4031,-0.0239,3D,,True,0.0,,-0.0239,-0.0211
66738,F5Ir1O1Rb2,2c8d4b19df,Rb2IrOF5,"['O', 'F', 'Rb', 'Ir']",9,173.8199,4.5296,4mm,I4mm,107,tetragonal,-46.4867,-2.3535,-0.0643,intercalated ion,0.9507,True,0.0,,-0.0643,-0.0555
66773,Br2Ge1La2Rh1,2c92b416b7,La2GeRhBr2,"['Ge', 'Br', 'Rh', 'La']",6,189.4223,5.3752,3m,P3m1,156,trigonal,-34.833,-1.6166,-0.0441,2D,0.0101,True,0.0,,-0.0441,-0.0441
66776,Gd4O14Os2Tm2,2c9326c41f,Gd2TmOsO7,"['O', 'Gd', 'Tm', 'Os']",22,296.2499,8.8076,2,C2,5,monoclinic,-227.3604,-3.199,-0.0222,3D,0.0724,True,0.0,,-0.0222,-0.0153
66778,Ga4La1O8Rb1,2c93b77a87,RbLa(GaO2)4,"['O', 'Ga', 'Rb', 'La']",14,201.1557,5.2111,mm2,Imm2,44,orthorhombic,-93.5029,-2.5636,-0.0448,intercalated ion,,True,0.0,,-0.0448,-0.0189
66793,Br2Sm7Sn6Y3,2c96e00182,Sm7Y3(Sn3Br)2,"['Br', 'Y', 'Sn', 'Sm']",18,506.6959,7.1813,32,P312,149,trigonal,-97.2994,-0.9744,-0.0051,3D,0.0039,False,0.0,,-0.0051,-0.005
66871,Nb2O24P6Zr2,2ca279916d,ZrNb(PO4)3,"['O', 'P', 'Zr', 'Nb']",34,521.3721,2.9878,1,P1,1,triclinic,-292.2581,-3.0509,-0.0161,intercalated ion,2.9201,True,0.0,,-0.0161,-0.0033
66937,B1Br2H3,2cace77ce8,BH3Br2,"['H', 'B', 'Br']",6,172.4413,1.6721,1,P1,1,triclinic,-22.9818,-0.4751,-0.0228,0D,4.0239,True,0.0,,-0.0228,-0.022
66953,Ag1Cu4Eu1O8,2caf62a6a0,EuCu4AgO8,"['O', 'Cu', 'Ag', 'Eu']",14,162.4324,6.5633,-4,I-4,82,tetragonal,-87.2489,-1.296,-0.0262,3D,0.0012,True,0.0,,-0.0262,-0.0116
66971,Ho7Ir4O24Pb1,2cb3a14c15,Ho7Ir4PbO24,"['O', 'Ho', 'Ir', 'Pb']",36,483.59,8.6345,1,P1,1,triclinic,-282.5948,-2.575,-0.0679,3D,,True,0.0,,-0.0679,-0.038