Unnamed: 0,Composition,MaterialId,Reduced Formula,Elements,NSites,Volume,Density,Point Group,Space Group,Space Group Number,Crystal System,Corrected Energy,Formation Energy Per Atom,Decomposition Energy Per Atom,Dimensionality Cheon,Bandgap,Is Train,Decomposition Energy Per Atom All,Decomposition Energy Per Atom Relative,Decomposition Energy Per Atom MP,Decomposition Energy Per Atom MP OQMD
10442,Al7Ga1O4Ti12,0709b826d9,Ti12Al7GaO4,"['O', 'Al', 'Ti', 'Ga']",24,330.603,4.5054,3,R3,146,trigonal,-175.0832,-1.3041,-0.0579,3D,0.0012,False,0.0,,-0.0579,-0.0467
10518,F2Ge2Pm2Rh1Ru1,07169fe29b,Pm2Ge2RuRhF2,"['F', 'Ge', 'Ru', 'Rh', 'Pm']",8,139.4562,8.0642,-42m,P-4m2,115,tetragonal,-54.4987,-1.9112,-0.2254,3D,0.0281,True,0.0,,-0.2254,-0.1497
10577,Lu1O4Se3Sm3,07210ef4fa,Sm3LuSe3O4,"['O', 'Se', 'Sm', 'Lu']",11,208.3305,7.3882,mm2,Amm2,38,orthorhombic,-83.6847,-3.1571,-0.0609,3D,1.215,True,0.0,,-0.0609,-0.0033
10634,Br1Ho8Pr8Sc4Si15,072ab86bc9,Pr8Ho8Sc4Si15Br,"['Si', 'Sc', 'Br', 'Pr', 'Ho']",36,846.9998,6.1319,1,P1,1,triclinic,-211.774,-0.7923,-0.0243,3D,,False,0.0,,-0.0243,-0.0202
10741,C2O2Tb1Y3,073db24029,TbY3(CO)2,"['C', 'O', 'Y', 'Tb']",8,124.0236,6.4489,mm2,Imm2,44,orthorhombic,-67.6217,-1.9048,-0.0677,3D,0.0124,False,0.0,,-0.0677,-0.0671
10775,As4Mo8O36Tl4,0741d22e55,TlMo2AsO9,"['O', 'As', 'Mo', 'Tl']",52,814.7568,5.0151,222,P2_12_12_1,19,orthorhombic,-386.1168,-1.7912,-0.0201,intercalated ion,,True,0.0,,-0.0201,-0.0056
10911,Cu4Li1O8Sm1,0759d63256,LiSm(CuO2)4,"['Li', 'O', 'Cu', 'Sm']",14,154.4851,5.7988,-4,I-4,82,tetragonal,-85.0973,-1.6064,-0.0185,intercalated ion,0.6428,False,-0.0,,-0.0185,-0.017
10964,B2C2Cl12Ho12,076410ab25,Ho6BCCl6,"['B', 'C', 'Cl', 'Ho']",28,617.3574,6.5905,222,F222,22,orthorhombic,-159.1461,-1.7915,-0.1369,3D,0.0092,True,0.0,,-0.1369,-0.0381
10985,B2O18Pr6Tc2,07668caf1e,Pr3TcBO9,"['B', 'O', 'Tc', 'Pr']",28,370.1423,6.0611,6,P6_3,173,hexagonal,-240.4439,-3.1648,-0.0782,3D,0.5137,True,0.0,,-0.0782,-0.0782
10994,F28Hf3Ho4Pd1,0767ff1a51,Ho4Hf3PdF28,"['F', 'Pd', 'Ho', 'Hf']",36,542.4353,5.613,1,P1,1,triclinic,-249.5657,-3.9629,-0.0147,3D,2.0351,True,0.0,,-0.0147,-0.0146
11012,Ba1Br8Cd3O24,076be361aa,BaCd3(BrO3)8,"['O', 'Br', 'Cd', 'Ba']",36,633.5908,3.9254,1,P1,1,triclinic,-162.5172,-0.7218,-0.119,intercalated ion,,True,0.0,,-0.119,-0.1128
11046,Cu4Hg1O8Tb1,07731de531,TbCu4HgO8,"['O', 'Cu', 'Tb', 'Hg']",14,158.7355,7.7589,-4,I-4,82,tetragonal,-81.2571,-1.4528,-0.0687,3D,0.0002,True,0.0,,-0.0687,-0.0522
11057,Br12C2Cs2La1Y5,0774ee0d14,Cs2LaY5(CBr6)2,"['C', 'Br', 'Y', 'Cs', 'La']",22,718.2823,4.2355,1,P1,1,triclinic,-120.3348,-1.9627,-0.04,intercalated ion,0.6675,True,0.0,,-0.04,-0.0069
11062,Ba1F12Re1U1,0775ee2e4f,BaUReF12,"['F', 'Ba', 'Re', 'U']",15,294.4968,4.4519,1,P1,1,triclinic,-99.4595,-3.3911,-0.0428,intercalated ion,0.1248,True,0.0,,-0.0428,-0.0101
11073,Cl2H9Hg2,07773b23fd,Hg2H9Cl2,"['H', 'Cl', 'Hg']",13,347.8723,2.2968,1,P1,1,triclinic,-39.001,-0.3202,-0.0585,intercalated molecule,0.0466,True,-0.0,,-0.0585,-0.0569
11074,Bi3O14Ta2Tm3,077764e2b8,Tm3Ta2Bi3O14,"['O', 'Tm', 'Ta', 'Bi']",22,311.6789,9.1617,1,P1,1,triclinic,-186.078,-3.0906,-0.0191,3D,,True,0.0,,-0.0191,-0.0191
11076,Au4Br14Cl2P4,0778ee85f6,P2Au2Br7Cl,"['P', 'Cl', 'Br', 'Au']",24,865.4464,4.0318,2,P2_1,4,monoclinic,-79.0148,-0.7355,-0.0321,0D,2.1116,True,0.0,,-0.0321,-0.0318
11089,O12Pb1Sb1Y5,077b553828,Y5SbPbO12,"['O', 'Y', 'Sb', 'Pb']",19,264.4952,6.0614,1,P1,1,triclinic,-161.0887,-3.2389,-0.0115,3D,,True,0.0,,-0.0115,-0.0115
11123,Li8O16Te1W3,078079fd5e,Li8TeW3O16,"['Li', 'O', 'Te', 'W']",28,315.3199,5.2169,2,P2,3,monoclinic,-199.899,-2.2658,-0.0136,intercalated ion,3.1528,True,0.0,,-0.0136,-0.0041
11184,Cd1Ge1O6Te1,078bd5856c,CdGeTeO6,"['O', 'Ge', 'Cd', 'Te']",9,112.8723,6.0119,32,P312,149,trigonal,-53.8972,-1.7245,-0.0726,3D,1.7252,True,0.0,,-0.0726,-0.0177
11197,Ba6O15Rh4Sb1,078e58b966,Ba6SbRh4O15,"['O', 'Rh', 'Sb', 'Ba']",26,398.7412,6.652,32,R32,155,trigonal,-177.4713,-2.2366,-0.0099,intercalated ion,,True,-0.0,,-0.0099,-0.0099
11325,Bi4O16Os3Ti1,07a354eba6,TiBi4Os3O16,"['O', 'Ti', 'Os', 'Bi']",24,319.7361,8.8833,1,P1,1,triclinic,-180.2326,-1.8303,-0.0393,3D,0.0157,True,0.0,,-0.0393,-0.0363
11399,Cl2Cs12Se8Y2,07af357a9a,Cs6YSe4Cl,"['Cl', 'Se', 'Y', 'Cs']",24,1015.8608,4.0461,6mm,P6_3mc,186,hexagonal,-94.9438,-1.6501,-0.0398,intercalated ion,,True,0.0,,-0.0398,-0.0191
11411,Ho4Mo1O14Ta1Y2,07b1dd7267,Y2Ho4TaMoO14,"['O', 'Y', 'Mo', 'Ho', 'Ta']",22,296.2195,7.5028,2,C2,5,monoclinic,-203.4138,-3.6444,-0.0075,3D,1.8804,True,0.0,,-0.0075,-0.0027
11480,La1O2Os2P2Th1,07bd31e14c,LaThP2(OsO)2,"['O', 'P', 'La', 'Os', 'Th']",8,136.1175,10.3127,4mm,P4mm,99,tetragonal,-72.6818,-2.1443,-0.0165,3D,0.0386,True,0.0,,-0.0165,-0.0158
11513,Ac4Cl1I5N2,07c19e843e,Ac4I5N2Cl,"['N', 'Cl', 'I', 'Ac']",12,418.6154,6.3705,m,Cm,8,monoclinic,-65.28,-1.8878,-0.14,3D,2.0896,True,0.0,,-0.14,-0.1004
11535,Ge6Nb3O1Zr7,07c53f1e33,Zr7Nb3Ge6O,"['O', 'Ge', 'Zr', 'Nb']",17,303.0677,7.5016,32,P312,149,trigonal,-140.0767,-1.0149,-0.0314,3D,0.0036,False,0.0,,-0.0314,-0.0089
11540,As3Br18Cs6Tm1,07c63e0530,Cs6Tm(AsBr6)3,"['As', 'Br', 'Cs', 'Tm']",28,1089.9734,4.0058,3m,P3m1,156,trigonal,-99.3661,-1.6456,-0.0764,intercalated ion,2.4256,False,0.0,,-0.0764,-0.018
11546,Br2Ga3Ir1Sr4,07c6cc631d,Sr4Ga3IrBr2,"['Ga', 'Br', 'Sr', 'Ir']",10,291.7876,5.1883,3m,P3m1,156,trigonal,-39.1096,-1.1155,-0.0401,intercalated ion,0.0109,True,0.0,,-0.0401,-0.0346
11560,As1Br6Ir1Te12,07c88a905a,Te12AsIrBr6,"['As', 'Br', 'Te', 'Ir']",20,690.2158,5.4799,32,R32,155,trigonal,-73.8389,-0.64,-0.2371,1D,0.8814,True,0.0,,-0.2371,-0.2062
11570,Ba8Li2Nb5O24Sb1,07caabcaaa,Ba8Li2Nb5SbO24,"['Li', 'O', 'Nb', 'Sb', 'Ba']",40,580.4708,5.9581,3m,P3m1,156,trigonal,-316.7499,-3.1048,-0.0043,intercalated ion,2.6557,True,0.0,,-0.0043,-0.0043
11571,Al1Br2Pr2Si1,07cab292ac,Pr2AlSiBr2,"['Al', 'Si', 'Br', 'Pr']",6,177.7025,4.6413,3m,P3m1,156,trigonal,-30.5653,-1.4265,-0.0671,2D,,True,-0.0,,-0.0671,-0.0377
11595,Cd2Ge4O12Rb4,07ce5620aa,Rb2Cd(GeO3)2,"['O', 'Ge', 'Rb', 'Cd']",22,404.1624,4.3109,222,C222_1,20,orthorhombic,-127.7325,-2.0044,-0.0204,intercalated ion,2.4957,True,0.0,,-0.0204,-0.0145
11602,Bi3F28Pb5,07cf37559d,Bi3Pb5F28,"['F', 'Pb', 'Bi']",36,618.9182,5.8888,1,P1,1,triclinic,-171.7993,-2.4457,-0.0262,3D,,True,0.0,,-0.0262,-0.0238
11617,O6Sr1V1W1,07d0c00aa0,SrVWO6,"['O', 'V', 'Sr', 'W']",9,127.868,5.4335,1,P1,1,triclinic,-77.3871,-2.6631,-0.005,intercalated ion,1.924,True,-0.0,,-0.005,-0.005
11720,Ce1F16K4Np3,07e47bb796,K4CeNp3F16,"['F', 'K', 'Ce', 'Np']",24,382.4524,5.6942,m,Pm,6,monoclinic,-167.7612,-3.665,-0.0529,intercalated ion,,True,0.0,,-0.0529,-0.0328
11739,Br2Ho3Pb6Pr7,07e6d1681f,Pr7Ho3(Pb3Br)2,"['Br', 'Pr', 'Ho', 'Pb']",18,543.2217,8.8164,32,P312,149,trigonal,-88.0297,-0.8481,-0.0453,3D,,True,0.0,,-0.0453,-0.0421
11753,O13Pb4Tb1W3,07ea1d07d2,TbPb4W3O13,"['O', 'Tb', 'W', 'Pb']",21,316.6892,9.1615,3m,R3m,160,trigonal,-168.6449,-2.1887,-0.0126,3D,,True,-0.0,,-0.0126,-0.0119
11776,Nb1O15Rh4Sr6,07ee24c212,Sr6NbRh4O15,"['O', 'Sr', 'Nb', 'Rh']",26,368.8855,5.718,32,R32,155,trigonal,-187.1616,-2.4326,-0.0081,intercalated ion,0.2022,True,0.0,,-0.0081,-0.0075
11818,Cl6Gd3Tb1,07f4dbdbc2,TbGd3Cl6,"['Cl', 'Gd', 'Tb']",10,279.6447,5.0081,m,Cm,8,monoclinic,-80.1098,-2.2156,-0.0049,2D,,False,0.0,,-0.0049,-0.0049
11853,Br8Ho7Os2Tb1,07f9b58eb4,TbHo7(OsBr4)2,"['Br', 'Tb', 'Ho', 'Os']",18,526.9683,7.352,1,P1,1,triclinic,-99.7607,-1.5277,-0.0833,3D,0.674,True,0.0,,-0.0833,-0.0433
11856,Ir2Li2O12Rh2,07fa62e6d5,LiIrRhO6,"['Li', 'O', 'Rh', 'Ir']",18,192.2552,6.8762,4mm,P4_2nm,102,tetragonal,-119.31,-1.3173,-0.089,intercalated ion,0.0018,False,0.0,,-0.089,-0.0396
12039,O14Ru6,0818d4e841,Ru3O7,"['O', 'Ru']",20,225.215,6.1227,6,P6_3,173,hexagonal,-152.8992,-1.3991,-0.0096,3D,,True,-0.0,,-0.0096,-0.0096
12168,Br18C1In3Na1Zr6,082eb89658,NaZr6In3CBr18,"['C', 'Na', 'Br', 'Zr', 'In']",29,916.381,4.2857,1,P1,1,triclinic,-146.5676,-1.6211,-0.0629,intercalated molecule,1.1907,False,-0.0,,-0.0629,-0.0468
12172,Ho4Mo1O24Se5,082f43e660,Ho4MoSe5O24,"['O', 'Se', 'Mo', 'Ho']",34,677.9402,3.7585,2,C2,5,monoclinic,-239.8056,-2.1882,-0.0035,3D,3.8533,True,0.0,,-0.0035,-0.0034
12174,F20Ho5Rb2Sm1,082fbe347e,Rb2SmHo5F20,"['F', 'Rb', 'Sm', 'Ho']",28,400.9125,6.3202,4mm,I4mm,107,tetragonal,-187.9272,-4.2895,-0.0473,intercalated ion,7.0924,True,0.0,,-0.0473,-0.0016
12243,Br2Ge1Ir1Pr2,083b246c18,Pr2GeIrBr2,"['Ge', 'Br', 'Pr', 'Ir']",6,181.8676,6.4505,3m,P3m1,156,trigonal,-35.3578,-1.5101,-0.0417,2D,0.0294,True,0.0,,-0.0417,-0.0314
12308,Br8O16Sr8Te6,08460d8a7b,Sr4Te3(BrO2)4,"['O', 'Br', 'Sr', 'Te']",38,780.7822,5.023,2,C2,5,monoclinic,-212.6896,-2.3171,-0.022,intercalated ion,,True,-0.0,,-0.022,-0.0166
12320,As2La1O2Pr1Zn2,0847db1bff,LaPrZn2(AsO)2,"['O', 'Zn', 'As', 'La', 'Pr']",8,154.3297,6.3748,4mm,P4mm,99,tetragonal,-47.5079,-2.0072,-0.0919,3D,0.6562,True,0.0,,-0.0919,-0.0002
12369,Br18In4Nb1Ta5,085062119c,Ta5Nb(In2Br9)2,"['Br', 'Nb', 'In', 'Ta']",28,884.1714,5.4374,1,P1,1,triclinic,-143.0223,-1.1843,-0.0098,1D,,True,0.0,,-0.0098,-0.0098
12386,As4Ba1F24K1,0851d5ab74,KBaAs4F24,"['F', 'K', 'As', 'Ba']",30,530.9783,2.9149,-4,I-4,82,tetragonal,-146.5558,-2.6338,-0.0269,intercalated ion,,True,0.0,,-0.0269,-0.0213
12412,F28Ir3Pt1Tb4,085544365d,Tb4Ir3PtF28,"['F', 'Tb', 'Ir', 'Pt']",36,532.9258,6.0429,1,P1,1,triclinic,-211.5748,-2.9703,-0.036,3D,0.0004,True,0.0,,-0.036,-0.0347
12430,F14Gd2Pa2,08587c5eab,GdPaF7,"['F', 'Gd', 'Pa']",18,320.4095,5.4031,2,P2_1,4,monoclinic,-150.7245,-4.2634,-2.4378,3D,,True,0.0,,-2.4378,-0.7032
12457,O12Os1Tb5V1,085c59306c,Tb5VOsO12,"['O', 'V', 'Tb', 'Os']",19,255.3455,7.9845,2,C2,5,monoclinic,-166.5101,-3.3501,-0.0198,3D,0.7133,True,0.0,,-0.0198,-0.0178
12471,Ho3La4O24Sm1Te4,085eebae6f,La4SmHo3(TeO6)4,"['O', 'Te', 'La', 'Sm', 'Ho']",36,526.1197,6.6127,1,P1,1,triclinic,-278.1901,-3.0182,-0.0067,3D,,False,0.0,,-0.0067,-0.0065
12510,Cs1O7P2Pd1,0865365e18,CsP2PdO7,"['O', 'P', 'Pd', 'Cs']",11,204.8488,3.35,2,C2,5,monoclinic,-76.0391,-2.2274,-0.0239,intercalated ion,,True,0.0,,-0.0239,-0.0144
12578,Br18C1In4Ti1Zr5,0873610e75,Zr5TiIn4CBr18,"['C', 'Ti', 'Br', 'Zr', 'In']",29,933.4364,4.2936,1,P1,1,triclinic,-145.052,-1.5421,-0.0436,1D,1.0451,True,0.0,,-0.0436,-0.0384
12594,Ho5O24Tb2Tm1W4,0875600cf2,Tb2Ho5Tm(WO6)4,"['O', 'Tb', 'Ho', 'Tm', 'W']",36,459.1477,8.7911,1,P1,1,triclinic,-326.931,-3.3247,-0.0045,3D,3.6605,True,0.0,,-0.0045,-0.0042
12608,Br12La7Si2Tb1,0876d2b443,La7Tb(SiBr6)2,"['Si', 'Br', 'La', 'Tb']",22,882.086,4.0404,m,Pm,6,monoclinic,-113.365,-1.9857,-0.0047,3D,0.0022,True,-0.0,,-0.0047,-0.0047
12705,F24Np5U1,0886acaef3,Np5UF24,"['F', 'U', 'Np']",30,468.1299,6.6651,2,C2,5,monoclinic,-238.0339,-3.8709,-0.0042,3D,,True,0.0,,-0.0042,-0.004
12720,Br15La1Pt1Th5,0888c12c67,LaTh5PtBr15,"['Br', 'La', 'Pt', 'Th']",22,841.8616,5.3113,4mm,I4mm,107,tetragonal,-117.8785,-2.0567,-0.0236,3D,0.8157,True,0.0,,-0.0236,-0.0162
12755,Br12La7Pr1Si2,089009a44f,La7Pr(SiBr6)2,"['Si', 'Br', 'La', 'Pr']",22,893.1584,3.9568,m,Pm,6,monoclinic,-113.6201,-1.9906,-0.0164,3D,0.0144,False,0.0,,-0.0164,-0.015
12770,Ag2Li2O52P16W4,0893830d52,LiAgP8(WO13)2,"['Li', 'O', 'P', 'Ag', 'W']",76,1051.2736,3.6212,2,P2_1,4,monoclinic,-590.3358,-2.4357,-0.0082,intercalated ion,,True,-0.0,,-0.0082,-0.0043
12836,O20Pr4Ti6V2,089cf00237,Pr2Ti3VO10,"['O', 'Ti', 'V', 'Pr']",32,405.5133,5.2116,222,P2_12_12,18,orthorhombic,-295.7987,-3.5055,-0.0118,3D,0.7687,True,-0.0,,-0.0118,-0.0118
12871,Ca3Mg2O12Pr1Ru2,08a299555b,Ca3PrMg2(RuO6)2,"['O', 'Mg', 'Ca', 'Ru', 'Pr']",20,239.7217,4.8758,1,P1,1,triclinic,-145.1307,-2.6604,-0.0473,intercalated ion,inf,True,-0.0,,-0.0473,-0.0473
12876,F28Rh3Ta1Y4,08a2ed92aa,Y4TaRh3F28,"['F', 'Y', 'Rh', 'Ta']",36,532.6031,4.2939,1,P1,1,triclinic,-231.1386,-3.2722,-0.0202,3D,0.0008,True,0.0,,-0.0202,-0.0187
12904,Ag10In1O12Pb3,08a771095a,InAg10(PbO4)3,"['O', 'Ag', 'In', 'Pb']",26,405.5184,8.2188,2,C2,5,monoclinic,-123.9925,-0.8616,-0.0059,3D,0.0761,False,-0.0,,-0.0059,-0.0058
12907,O24Se6Th3,08a7b7196c,Th(SeO4)2,"['O', 'Se', 'Th']",33,710.1733,3.6333,3,R3,146,trigonal,-226.7216,-1.9622,-0.0049,3D,3.7539,True,0.0,,-0.0049,-0.0036
12960,Cl1Eu1La1O2,08b033031d,LaEuClO2,"['O', 'Cl', 'La', 'Eu']",5,103.026,5.7753,3m,P3m1,156,trigonal,-44.2183,-3.4492,-0.0572,3D,0.1825,True,0.0,,-0.0572,-0.0253
12968,Ac4Br6La1Ru2Sm1,08b1579c12,Ac4LaSm(RuBr3)2,"['Br', 'Ru', 'La', 'Sm', 'Ac']",14,537.225,5.8074,m,Pm,6,monoclinic,-76.0719,-1.5402,-0.0439,3D,,True,0.0,,-0.0439,-0.0436
13011,F1O17Re4V2,08b7b46386,V2Re4O17F,"['O', 'F', 'V', 'Re']",24,407.2931,4.6384,m,Cm,8,monoclinic,-207.6998,-2.2386,-0.0061,2D,1.792,True,0.0,,-0.0061,-0.0032
13119,Cl2In2K12S8,08c65189a2,K6InS4Cl,"['S', 'Cl', 'K', 'In']",24,721.9058,2.3606,6mm,P6_3mc,186,hexagonal,-90.1871,-1.4404,-0.0556,intercalated ion,2.6125,True,-0.0,,-0.0556,-0.0181
13145,La3O14Pr3Ta2,08ca672558,La3Pr3Ta2O14,"['O', 'La', 'Pr', 'Ta']",22,331.9711,7.1296,m,Pm,6,monoclinic,-205.2349,-3.7771,-0.0046,3D,3.4392,False,0.0,,-0.0046,-0.0046
13246,O24Pr2Tb4W4Y2,08dfbb468a,Tb2PrY(WO6)2,"['O', 'Y', 'Pr', 'Tb', 'W']",36,480.5846,7.6522,2,P2,3,monoclinic,-329.8604,-3.2846,-0.0131,3D,3.5881,True,0.0,,-0.0131,-0.0131
13279,Ir2O12Rh2Ru2,08e5ffb84f,IrRuRhO6,"['O', 'Ru', 'Rh', 'Ir']",18,196.0024,8.3397,4mm,P4_2nm,102,tetragonal,-134.5157,-1.3437,-0.0305,3D,0.004,True,0.0,,-0.0305,-0.0305
13332,Ga1O2Ti6Zn1,08f024b515,Ti6ZnGaO2,"['O', 'Ti', 'Zn', 'Ga']",10,136.7069,5.5186,mm2,Amm2,38,orthorhombic,-75.5783,-1.4022,-0.0404,3D,0.0037,True,0.0,,-0.0404,-0.0323
13421,Ac1La1O6,08ff0f3411,AcLaO6,"['O', 'La', 'Ac']",8,115.4366,6.6444,1,P1,1,triclinic,-58.212,-2.4334,-0.0543,3D,2.9822,True,0.0,,-0.0543,-0.0402
13489,O24Os3Pr8Ta1,0908dca951,Pr8Ta(OsO8)3,"['O', 'Pr', 'Ta', 'Os']",36,535.101,7.0222,1,P1,1,triclinic,-310.8474,-3.0086,-0.0279,3D,0.0019,False,0.0,,-0.0279,-0.0278
13511,Ba1F24Sb4Sr1,090b986b52,BaSrSb4F24,"['F', 'Sr', 'Sb', 'Ba']",30,659.6326,2.9402,-4,I-4,82,tetragonal,-156.8385,-3.028,-0.0777,intercalated ion,,True,0.0,,-0.0777,-0.0345
13567,Ac6Br12La6Ru4,0914fa4052,Ac3La3(RuBr3)2,"['Br', 'Ru', 'La', 'Ac']",28,985.5734,5.9956,2,C2,5,monoclinic,-154.8067,-1.5615,-0.0497,3D,0.0016,True,0.0,,-0.0497,-0.0457
13603,Ca4La4O24Ta4V4,091a8b4d6d,CaLaTaVO6,"['O', 'Ca', 'V', 'La', 'Ta']",40,517.4362,6.5065,m,Pc,7,monoclinic,-364.6878,-3.3601,-0.0112,intercalated ion,1.4815,True,0.0,,-0.0112,-0.0097
13651,La4O19Pr1U5,09200ebe4b,La4PrU5O19,"['O', 'La', 'Pr', 'U']",29,429.9475,8.4608,1,P1,1,triclinic,-288.1309,-3.9013,-0.034,3D,0.0034,True,0.0,,-0.034,-0.034
13652,Br10Hg8S4Sm2,0920780121,SmHg4S2Br5,"['S', 'Br', 'Sm', 'Hg']",24,798.7401,5.8891,2,P2_1,4,monoclinic,-71.8774,-1.129,-0.0044,3D,,True,0.0,,-0.0044,-0.0038
13690,Al2Cl2Rb12Te8,0928f10f49,Rb6AlTe4Cl,"['Al', 'Cl', 'Rb', 'Te']",24,1001.0875,3.6016,6mm,P6_3mc,186,hexagonal,-80.2997,-1.3416,-0.1103,intercalated ion,2.192,True,0.0,,-0.1103,-0.059
13695,Cl2Lu3Sm7Sn6,09292ed757,Sm7Lu3(Sn3Cl)2,"['Cl', 'Sn', 'Sm', 'Lu']",18,485.3799,8.0758,32,P312,149,trigonal,-92.9913,-1.0358,-0.037,3D,0.002,True,0.0,,-0.037,-0.024
13696,Br8In3Rb1Zn2,09294306bc,RbZn2In3Br8,"['Zn', 'Br', 'Rb', 'In']",14,515.1342,3.8681,m,Pm,6,monoclinic,-42.3685,-1.2513,-0.0047,intercalated ion,3.0146,True,0.0,,-0.0047,-0.0022
13708,F12Np1Pr3,092a6ce1fa,Pr3NpF12,"['F', 'Pr', 'Np']",16,227.4021,6.4822,m,Pm,6,monoclinic,-118.5711,-4.2714,-0.0129,3D,0.2242,False,0.0,,-0.0129,-0.0125
13727,Bi1Br18Cs6P3,092d53ec1c,Cs6Bi(PBr6)3,"['P', 'Br', 'Cs', 'Bi']",28,1069.4711,3.9401,3m,P3m1,156,trigonal,-94.2774,-1.4039,-0.004,intercalated ion,2.0059,True,0.0,,-0.004,-0.0035
13748,Br2Sm9Sn6Tb1,0930aa6f0b,TbSm9(Sn3Br)2,"['Br', 'Sn', 'Sm', 'Tb']",18,512.2178,7.7294,32,P312,149,trigonal,-91.6724,-0.9577,-0.0038,3D,0.0014,True,0.0,,-0.0038,-0.0016
13803,F26Np6Rb2,093a5a5f55,RbNp3F13,"['F', 'Rb', 'Np']",34,503.0276,6.889,mm2,Pmc2_1,26,orthorhombic,-257.4413,-3.7675,-0.035,intercalated ion,0.0004,True,0.0,,-0.035,-0.0036
13811,Au1Gd4O12Y2,093c143378,Gd4Y2AuO12,"['O', 'Y', 'Gd', 'Au']",19,270.3861,7.3437,1,P1,1,triclinic,-193.095,-3.2215,-0.0355,3D,0.0011,True,0.0,,-0.0355,-0.0296
13879,B2Br12Ho1Y7,094810b5c4,Y7Ho(BBr6)2,"['B', 'Br', 'Y', 'Ho']",22,715.4329,4.103,m,Pm,6,monoclinic,-123.3669,-1.8417,-0.025,3D,,True,0.0,,-0.025,-0.0185
13938,Li12O48Pr3Tb9W8,0952432756,Li12Tb9Pr3(WO6)8,"['Li', 'O', 'Pr', 'Tb', 'W']",80,966.1487,7.1757,32,R32,155,trigonal,-660.355,-3.0029,-0.0253,intercalated ion,,True,0.0,,-0.0253,-0.0211
13982,K3O4Os1,095ac5bfad,K3OsO4,"['O', 'K', 'Os']",8,150.9523,4.0869,mm2,Fmm2,42,orthorhombic,-48.071,-1.7151,-0.1735,intercalated ion,0.1856,True,0.0,,-0.1735,-0.0013
13994,O12Pb1Sr1V4,095d4ffcf4,SrV4PbO12,"['O', 'V', 'Sr', 'Pb']",18,279.1447,4.108,m,Cm,8,monoclinic,-145.2181,-2.4503,-0.0074,intercalated ion,2.3562,True,0.0,,-0.0074,-0.0066
14003,Mo1O12Pr5Pt1,095f3f1141,Pr5MoPtO12,"['O', 'Mo', 'Pr', 'Pt']",19,291.6818,6.7607,2,C2,5,monoclinic,-158.6756,-3.0778,-0.023,3D,1.8957,True,0.0,,-0.023,-0.023
14080,F24K6Li2Zr4,096eaf411f,K3LiZr2F12,"['Li', 'F', 'K', 'Zr']",36,669.5821,2.6519,-42m,P-42_1c,114,tetragonal,-223.221,-3.6854,-0.0187,intercalated ion,6.7188,True,0.0,,-0.0187,-0.012
14097,Cs7K1Nb4O40P8V4,097094f177,Cs7KNb4V4(PO5)8,"['O', 'P', 'K', 'V', 'Nb', 'Cs']",64,943.6619,4.2806,1,P1,1,triclinic,-502.8496,-2.7735,-0.0055,intercalated ion,,True,0.0,,-0.0055,-0.0036
14158,Na4O6Pt1Sn1,097ddf5994,Na4SnPtO6,"['O', 'Na', 'Sn', 'Pt']",12,145.8559,5.7123,2,C2,5,monoclinic,-66.5677,-1.7924,-0.0035,intercalated ion,2.169,True,0.0,,-0.0035,-0.0029
14181,Br18In1Rb1Zr4,09821bfbd9,RbZr4InBr18,"['Br', 'Rb', 'Zr', 'In']",24,983.3538,3.3831,2,P2,3,monoclinic,-110.3524,-1.7902,-0.0425,intercalated ion,,False,0.0,,-0.0425,-0.0012
14183,Ca1Np1O12Tm5,09827ff697,CaTm5NpO12,"['O', 'Ca', 'Tm', 'Np']",19,264.1205,8.2596,1,P1,1,triclinic,-169.3611,-3.8238,-0.147,intercalated ion,0.7485,False,0.0,,-0.147,-0.0509
14186,Cl7I1Pt2,098403e1ae,Pt2ICl7,"['Cl', 'I', 'Pt']",10,297.3523,4.2734,1,P1,1,triclinic,-34.8904,-0.8285,-0.0366,1D,1.2567,False,0.0,,-0.0366,-0.0096
14202,Nb1O24Pr8Tc3,0986e52e0a,Pr8Nb(TcO8)3,"['O', 'Nb', 'Tc', 'Pr']",36,530.6201,5.9401,1,P1,1,triclinic,-310.487,-3.1196,-0.0896,3D,0.011,True,0.0,,-0.0896,-0.0896
14205,B3Br12Si1Y12,09874b1ffb,Y12Si(BBr4)3,"['B', 'Si', 'Br', 'Y']",28,738.0801,4.6936,32,R32,155,trigonal,-166.3414,-1.5585,-0.0078,3D,0.0102,False,0.0,,-0.0078,-0.0077
14210,O4Rb3Re1,09880933a7,Rb3ReO4,"['O', 'Rb', 'Re']",8,179.1786,4.695,-42m,I-42m,121,tetragonal,-50.9591,-1.9726,-0.2008,intercalated ion,1.8695,True,0.0,,-0.2008,-0.0676
14216,F28Hf1Pr4Tc3,098983c0b7,Pr4HfTc3F28,"['F', 'Tc', 'Pr', 'Hf']",36,591.7582,4.4002,1,P1,1,triclinic,-242.9212,-3.5899,-0.0753,3D,1.7052,True,0.0,,-0.0753,-0.0751
14258,Bi3O14Tb3W2,098fef0db8,Tb3Bi3(WO7)2,"['O', 'Tb', 'W', 'Bi']",22,313.8251,8.9708,1,P1,1,triclinic,-179.7844,-2.6829,-0.0049,3D,,True,-0.0,,-0.0049,-0.0049
14261,La5O12Tc1Zn1,0990d8361a,La5ZnTcO12,"['O', 'Zn', 'Tc', 'La']",19,295.2369,5.9053,2,C2,5,monoclinic,-156.717,-3.2127,-0.0486,3D,,True,0.0,,-0.0486,-0.0486
14297,Br24Nb2Rb8Sc1Sn1,099626bae2,Rb8ScNb2SnBr24,"['Sc', 'Br', 'Rb', 'Nb', 'Sn']",36,1273.2991,3.8484,-4,I-4,82,tetragonal,-140.1551,-1.7355,-0.0157,intercalated ion,,False,-0.0,,-0.0157,-0.0098
14348,Al1Br16Ga3Sn2,099fff0e25,AlGa3(SnBr8)2,"['Al', 'Ga', 'Br', 'Sn']",22,901.4061,3.2275,1,P1,1,triclinic,-75.3658,-1.2875,-0.026,0D,,True,0.0,,-0.026,-0.026
14389,Au1Ce1Ho5O12,09a5bd783f,CeHo5AuO12,"['O', 'Ce', 'Ho', 'Au']",19,261.9277,8.5822,1,P1,1,triclinic,-155.5353,-3.3706,-0.0357,3D,1.5364,True,0.0,,-0.0357,-0.0258
14423,Bi1Ho5O12Zr1,09ab4603b3,Ho5ZrBiO12,"['O', 'Zr', 'Ho', 'Bi']",19,262.4131,8.333,1,P1,1,triclinic,-162.1741,-3.5499,-0.0532,3D,1.832,True,0.0,,-0.0532,-0.0301
14477,As5Ga1O1Ti10,09b431f8a7,Ti10GaAs5O,"['O', 'Ti', 'Ga', 'As']",17,254.9418,6.1161,m,Cm,8,monoclinic,-129.1172,-1.1112,-0.034,3D,0.0005,True,0.0,,-0.034,-0.0338
14481,F36Tb2,09b4d18459,TbF18,"['F', 'Tb']",38,660.9218,2.517,1,P1,1,triclinic,-123.1684,-1.1865,-0.2459,0D,,True,0.0,,-0.2459,-0.2459
14483,Eu2F14Pu2,09b4e37f1c,EuPuF7,"['F', 'Eu', 'Pu']",18,322.9673,5.4392,2,P2_1,4,monoclinic,-145.9823,-3.8945,-0.0923,3D,,True,0.0,,-0.0923,-0.0512