Unnamed: 0,Composition,MaterialId,Reduced Formula,Elements,NSites,Volume,Density,Point Group,Space Group,Space Group Number,Crystal System,Corrected Energy,Formation Energy Per Atom,Decomposition Energy Per Atom,Dimensionality Cheon,Bandgap,Is Train,Decomposition Energy Per Atom All,Decomposition Energy Per Atom Relative,Decomposition Energy Per Atom MP,Decomposition Energy Per Atom MP OQMD
21420,Bi2Cd4In1O12Tl1,0e4b34ea76,TlCd4In(BiO6)2,"['O', 'Cd', 'In', 'Tl', 'Bi']",20,300.4567,7.6202,1,P1,1,triclinic,-104.689,-1.4364,-0.0483,3D,0.0178,False,0.0,,-0.0483,-0.0422
21442,Ir1K1O6Rh1,0e4f660c4d,KIrRhO6,"['O', 'K', 'Rh', 'Ir']",9,138.4911,5.1584,32,P312,149,trigonal,-58.706,-1.3006,-0.0525,intercalated ion,,True,0.0,,-0.0525,-0.0312
21451,Ba3Nb1O26Si4W5,0e504d9c82,Ba3NbSi4W5O26,"['O', 'Si', 'Nb', 'Ba', 'W']",39,566.7609,5.7203,1,P1,1,triclinic,-341.8461,-2.8423,-0.0222,intercalated ion,1.4884,True,0.0,,-0.0222,-0.0147
21465,Ba8Ir3O20Ta1,0e521f9af7,Ba8TaIr3O20,"['O', 'Ba', 'Ta', 'Ir']",32,510.1967,7.0829,m,Pm,6,monoclinic,-232.1292,-2.4827,-0.1016,intercalated ion,0.0015,True,0.0,,-0.1016,-0.0783
21466,Ba1Cu1O16Pd7,0e524f758e,BaCuPd7O16,"['O', 'Cu', 'Pd', 'Ba']",25,323.3571,6.1716,1,P1,1,triclinic,-147.5763,-1.0453,-0.0878,intercalated ion,,True,0.0,,-0.0878,-0.0248
21566,Nb1O13Pb4Sb1Sn2,0e62af8211,NbSn2SbPb4O13,"['O', 'Nb', 'Sn', 'Sb', 'Pb']",21,310.7303,7.9565,m,Cm,8,monoclinic,-144.635,-2.0577,-0.0051,3D,1.4587,True,0.0,,-0.0051,-0.0051
21576,As4Ga4Hg4O20,0e63f7440c,GaHgAsO5,"['O', 'Ga', 'As', 'Hg']",32,435.3753,6.4874,222,P2_12_12_1,19,orthorhombic,-183.6408,-1.6474,-0.0154,3D,1.8774,True,0.0,,-0.0154,-0.0141
21762,Br6Pr1Si14Sm11,0e82a9b94a,PrSm11(Si7Br3)2,"['Si', 'Br', 'Pr', 'Sm']",32,768.0217,5.7674,m,Pm,6,monoclinic,-177.5454,-1.0964,-0.0322,3D,0.0026,False,0.0,,-0.0322,-0.0033
21776,Na4O52P16Ta4,0e84c0e60b,NaTaP4O13,"['O', 'Na', 'P', 'Ta']",76,1094.6289,3.2514,222,P2_12_12_1,19,orthorhombic,-607.8224,-2.7786,-0.0008,intercalated ion,3.6691,True,0.0,,-0.0008,-0.0008
21818,Hf1Lu4O12Sn1Zr1,0e8b31b564,Lu4HfZrSnO12,"['O', 'Zr', 'Sn', 'Lu', 'Hf']",19,241.9135,8.7881,1,P1,1,triclinic,-171.5377,-3.7665,-0.0151,3D,4.0155,True,0.0,,-0.0151,-0.0148
21835,O2Si1Zn1Zr6,0e8e165604,Zr6ZnSiO2,"['O', 'Si', 'Zn', 'Zr']",10,169.7349,6.5825,mm2,Amm2,38,orthorhombic,-82.7333,-1.4866,-0.0223,3D,0.0069,True,0.0,,-0.0223,-0.0101
21841,Al1O1Tc15Y6,0e8f3deb33,Y6AlTc15O,"['O', 'Al', 'Y', 'Tc']",23,401.2674,8.4686,mm2,Fmm2,42,orthorhombic,-213.8144,-0.4745,-0.0098,3D,,True,0.0,,-0.0098,-0.0094
21912,F28Ho3Lu1Tc4,0e9dacfd9e,Ho3LuTc4F28,"['F', 'Tc', 'Ho', 'Lu']",36,522.7006,5.063,1,P1,1,triclinic,-234.5152,-3.369,-0.0941,3D,1.606,True,0.0,,-0.0941,-0.0875
21933,Ga1O12Ru1Sr6Ti1,0ea0474206,Sr6TiGaRuO12,"['O', 'Ti', 'Ga', 'Sr', 'Ru']",21,295.3401,5.2647,m,Cm,8,monoclinic,-150.9657,-2.9169,-0.008,intercalated ion,0.4586,False,0.0,,-0.008,-0.0054
22000,Ba4N9O2U4,0ea9d108f1,Ba4U4N9O2,"['N', 'O', 'Ba', 'U']",19,334.3325,8.2422,1,P1,1,triclinic,-171.3367,-1.7669,-0.0787,intercalated ion,,True,0.0,,-0.0787,-0.0776
22056,Br3P1S24,0eb3de4d7a,P(S8Br)3,"['P', 'S', 'Br']",28,956.0362,1.8068,3m,R3m,160,trigonal,-124.7995,-0.5429,-0.3935,0D,2.6527,True,0.0,,-0.3935,-0.3931
22088,F30Pt1Tm2Zr5,0eb878cdff,Tm2Zr5PtF30,"['F', 'Zr', 'Tm', 'Pt']",38,511.3989,5.0622,2,C2,5,monoclinic,-259.9242,-3.811,-0.016,3D,2.5063,True,0.0,,-0.016,-0.0158
22111,Ca2O19Os6Sm2,0ebaaebfab,Ca2Sm2Os6O19,"['O', 'Ca', 'Sm', 'Os']",29,377.3643,8.0361,2,C2,5,monoclinic,-237.8208,-2.1723,-0.0256,intercalated ion,0.0025,True,0.0,,-0.0256,-0.0123
22165,Br18Nb5Ta1Y1,0ec439e868,YTaNb5Br18,"['Br', 'Y', 'Nb', 'Ta']",25,794.7354,4.5396,1,P1,1,triclinic,-134.9351,-1.4656,-0.0073,3D,0.1077,True,0.0,,-0.0073,-0.0073
22233,F28Pt4Tb1Tm3,0ecfed8b47,TbTm3Pt4F28,"['F', 'Tb', 'Tm', 'Pt']",36,514.3853,6.3854,1,P1,1,triclinic,-201.1462,-2.9244,-0.1652,3D,2.2509,True,0.0,,-0.1652,-0.0396
22258,Ac2F28Ir4La2,0ed3b61f01,AcLaIr2F14,"['F', 'La', 'Ir', 'Ac']",36,616.5455,5.4745,2,P2_1,4,monoclinic,-215.618,-3.0175,-0.0858,3D,0.0005,True,0.0,,-0.0858,-0.059
22260,Au1Ho5O12Zr1,0ed3cf0330,Ho5ZrAuO12,"['O', 'Zr', 'Ho', 'Au']",19,254.5439,8.5122,1,P1,1,triclinic,-158.0264,-3.3641,-0.0376,3D,1.499,True,0.0,,-0.0376,-0.0255
22284,O4Pd2Rh6Ti16,0ed6b14918,Ti8PdRh3O2,"['O', 'Ti', 'Rh', 'Pd']",28,396.9783,6.9443,mm2,Imm2,44,orthorhombic,-237.199,-1.3048,-0.0201,3D,0.0178,True,0.0,,-0.0201,-0.0167
22299,Cl6Tb1Y3,0ed955cc2f,TbY3Cl6,"['Cl', 'Y', 'Tb']",10,275.7492,3.8442,m,Cm,8,monoclinic,-57.2752,-2.215,-0.0004,2D,0.7499,True,0.0,,-0.0004,-0.0004
22300,B6La1O18Pr5,0ed9562ab7,LaPr5(BO3)6,"['B', 'O', 'La', 'Pr']",30,376.8098,5.2719,1,P1,1,triclinic,-261.879,-3.4633,-0.0013,3D,4.8486,True,-0.0,,-0.0013,-0.0013
22309,Au4Bi3La1O12,0eda4fcefe,LaBi3(AuO3)4,"['O', 'La', 'Au', 'Bi']",20,306.7974,9.4486,m,Pm,6,monoclinic,-117.1668,-1.4045,-0.0063,3D,1.1092,True,0.0,,-0.0063,-0.0063
22318,F20Pd4Rb4,0edbaed51e,RbPdF5,"['F', 'Rb', 'Pd']",28,498.6512,3.8213,mm2,Pmc2_1,26,orthorhombic,-121.9594,-2.1103,-0.0302,intercalated ion,1.3525,False,0.0,,-0.0302,-0.0302
22336,Br12Ca1Ir1Pr5Tb1,0eddccd564,CaTbPr5IrBr12,"['Ca', 'Br', 'Pr', 'Tb', 'Ir']",20,739.8049,4.6117,1,P1,1,triclinic,-100.1474,-2.0561,-0.0252,intercalated ion,0.0035,True,0.0,,-0.0252,-0.0221
22400,F12Ru1Sr1Ta1,0ee93aeae5,SrTaRuF12,"['F', 'Sr', 'Ru', 'Ta']",15,268.9471,3.6898,1,P1,1,triclinic,-92.919,-3.144,-0.0215,intercalated ion,1.2988,True,-0.0,,-0.0215,-0.0214
22418,Cu1Ho5O12Rh1,0eeb45197c,Ho5CuRhO12,"['O', 'Cu', 'Rh', 'Ho']",19,247.5247,7.9369,2,C2,5,monoclinic,-150.5855,-2.9913,-0.0253,3D,0.0121,True,0.0,,-0.0253,-0.0244
22439,Bi2Ho1O18Se6Y1,0eef0f6c59,YHoBi2(SeO3)6,"['O', 'Se', 'Y', 'Ho', 'Bi']",28,465.007,5.1192,1,P1,1,triclinic,-182.0378,-1.8989,-0.0436,3D,,True,-0.0,,-0.0436,-0.0436
22440,Cu1O2P1Zr6,0eef1dbbd9,Zr6CuPO2,"['O', 'P', 'Cu', 'Zr']",10,165.2738,6.7704,mm2,Amm2,38,orthorhombic,-86.3395,-1.5645,-0.0224,3D,0.0053,True,0.0,,-0.0224,-0.0109
22448,Br16Os2Re2Te8,0eefeec1ad,ReTe4OsBr8,"['Br', 'Te', 'Re', 'Os']",28,1049.5277,4.829,1,P1,1,triclinic,-119.3654,-0.7387,-0.0596,intercalated ion,1.2597,True,0.0,,-0.0596,-0.0119
22449,Ac4Br2Ge2Rh2,0eeff03fc6,Ac2GeRhBr,"['Ge', 'Br', 'Rh', 'Ac']",10,290.7063,8.1049,6mm,P6_3mc,186,hexagonal,-56.2336,-1.2709,-0.3666,2D,,True,0.0,,-0.3666,-0.1645
22491,Ba6Ho1O12Sc2Y1,0ef6be877b,Ba6YHoSc2O12,"['O', 'Sc', 'Y', 'Ba', 'Ho']",22,380.8875,5.9278,32,R32,155,trigonal,-169.2828,-3.3945,-0.0188,intercalated ion,3.3511,True,0.0,,-0.0188,-0.0072
22502,Cu2Ir2O12Pd2,0ef8bce319,CuIrPdO6,"['O', 'Cu', 'Pd', 'Ir']",18,195.0524,7.8012,mm2,Pnn2,34,orthorhombic,-113.0827,-0.9707,-0.0677,3D,0.0019,True,0.0,,-0.0677,-0.0254
22600,Ce1N1O1Sb1Th1,0f07d7c617,CeThSbNO,"['N', 'O', 'Sb', 'Ce', 'Th']",5,105.1684,8.2724,mm2,Imm2,44,orthorhombic,-42.5985,-2.3676,-0.0443,3D,,True,0.0,,-0.0443,-0.0252
22629,Ce3La3O12Pr1,0f0d2d3282,La3Ce3PrO12,"['O', 'La', 'Ce', 'Pr']",19,307.4258,6.3195,1,P1,1,triclinic,-170.7928,-3.8963,-0.0141,3D,2.0967,False,0.0,,-0.0141,-0.0141
22650,Ag2O24Sb2Se6,0f10ac2904,AgSb(SeO4)3,"['O', 'Se', 'Ag', 'Sb']",34,648.4579,3.3725,1,P1,1,triclinic,-190.7071,-1.0899,-0.0298,3D,,True,0.0,,-0.0298,-0.0039
22671,O26Rb2Ta10,0f155e603c,RbTa5O13,"['O', 'Rb', 'Ta']",38,539.7736,7.3722,mm2,Ama2,40,orthorhombic,-374.0977,-3.2872,-0.0175,intercalated ion,2.666,True,0.0,,-0.0175,-0.0175
22697,Ga3Nb1O14Pb3Si2,0f18d7d0be,NbGa3Si2Pb3O14,"['O', 'Si', 'Ga', 'Nb', 'Pb']",23,321.4024,6.2197,32,P321,150,trigonal,-167.5229,-2.4816,-0.0034,3D,,False,0.0,,-0.0034,-0.0034
22698,Ho5La1O14W2,0f18f943f3,LaHo5(WO7)2,"['O', 'La', 'Ho', 'W']",22,300.6369,8.5902,2,C2,5,monoclinic,-200.1849,-3.5068,-0.0233,3D,2.4218,True,0.0,,-0.0233,-0.0098
22745,Cu1O24P6Ta3,0f1faccab4,Ta3Cu(PO4)6,"['O', 'P', 'Cu', 'Ta']",34,487.7122,4.0047,3,R3,146,trigonal,-285.7047,-2.7883,-0.0232,3D,0.5759,True,0.0,,-0.0232,-0.0223
22751,Mg2O16Pt3Sn1Zn6,0f20a71bdb,Mg2Zn6SnPt3O16,"['O', 'Mg', 'Zn', 'Sn', 'Pt']",28,327.2004,7.1101,2,P2,3,monoclinic,-161.454,-1.7609,-0.0173,3D,,True,0.0,,-0.0173,-0.0173
22761,F28La4Os2Rh2,0f231dfcc5,La2OsRhF14,"['F', 'Rh', 'La', 'Os']",36,598.3456,4.6453,2,P2_1,4,monoclinic,-221.7886,-3.0928,-0.0063,3D,0.0995,True,0.0,,-0.0063,-0.0062
22790,Br12Ho1Si2Tm7,0f28539474,HoTm7(SiBr6)2,"['Si', 'Br', 'Ho', 'Tm']",22,723.1653,5.4248,m,Pm,6,monoclinic,-107.1703,-1.8529,-0.0638,3D,0.0282,True,0.0,,-0.0638,-0.0108
22811,Na4O6Rh1Sb1,0f2b65ccb0,Na4SbRhO6,"['O', 'Na', 'Rh', 'Sb']",12,143.1908,4.785,2,C2,5,monoclinic,-68.5542,-1.8403,-0.0146,intercalated ion,,True,0.0,,-0.0146,-0.014
22872,B1Br18Na3Sr1Zr6,0f34f36153,Na3SrZr6BBr18,"['B', 'Na', 'Br', 'Sr', 'Zr']",29,875.1568,4.0852,1,P1,1,triclinic,-146.5201,-1.8425,-0.0547,intercalated ion,1.1395,True,0.0,,-0.0547,-0.0481
22935,Ce3F20Rb8Sm1,0f3ec9399c,Rb8Ce3SmF20,"['F', 'Rb', 'Ce', 'Sm']",32,650.0577,4.175,m,Pm,6,monoclinic,-186.3483,-3.6799,-0.0322,intercalated ion,,True,0.0,,-0.0322,-0.0127
22966,Cl2Lu1Pr9Sn6,0f446bb3ae,Pr9Lu(Sn3Cl)2,"['Cl', 'Sn', 'Pr', 'Lu']",18,528.0616,7.0008,32,P312,149,trigonal,-94.5196,-1.0676,-0.0665,3D,0.0008,True,0.0,,-0.0665,-0.0641
23016,O6Pd1Sb1Tb1,0f4e457c02,TbSbPdO6,"['O', 'Pd', 'Sb', 'Tb']",9,118.2077,6.7864,32,P312,149,trigonal,-63.2985,-2.1853,-0.0338,3D,,True,0.0,,-0.0338,-0.0106
23034,O16Os4Tm3Y1,0f50ee2525,YTm3(OsO4)4,"['O', 'Y', 'Tm', 'Os']",24,296.9767,9.0169,1,P1,1,triclinic,-205.2667,-2.554,-0.0385,3D,0.0015,True,0.0,,-0.0385,-0.0337
23093,Cl30Os5V1,0f5a1c0fad,V(OsCl6)5,"['Cl', 'V', 'Os']",36,1091.5234,3.1425,1,P1,1,triclinic,-156.8648,-1.0052,-0.1517,0D,,True,0.0,,-0.1517,-0.1459
23113,Eu6Hf1O14V1,0f5cc723f3,Eu6HfVO14,"['O', 'V', 'Eu', 'Hf']",22,310.0167,7.3124,2,C2,5,monoclinic,-226.3843,-3.4691,-0.3384,3D,0.079,True,0.0,,-0.3384,-0.2712
23115,O16Ru1Sr4W3,0f5d1ea802,Sr4RuW3O16,"['O', 'Sr', 'Ru', 'W']",24,375.9843,5.5607,2,P2,3,monoclinic,-196.2873,-2.5922,-0.0221,intercalated ion,0.3074,True,0.0,,-0.0221,-0.0221
23140,Gd2Ho3O24W4Y3,0f61875781,Gd2Y3Ho3(WO6)4,"['O', 'Y', 'Gd', 'Ho', 'W']",36,466.6517,7.812,1,P1,1,triclinic,-350.6203,-3.2983,-0.0048,3D,3.3703,True,0.0,,-0.0048,-0.0031
23148,Bi2F14Pu2,0f633c7d44,PuBiF7,"['F', 'Bi', 'Pu']",18,329.8367,5.9,2,P2_1,4,monoclinic,-123.7271,-3.3695,-0.0228,3D,,True,0.0,,-0.0228,-0.0219
23174,Br6La7Si14Sm5,0f666c4d95,La7Sm5(Si7Br3)2,"['Si', 'Br', 'La', 'Sm']",32,806.4025,5.3472,m,Pm,6,monoclinic,-181.1029,-1.1619,-0.0213,3D,0.0073,True,0.0,,-0.0213,-0.0041
23214,Ba2O12Os3,0f6f9860c4,Ba2(OsO4)3,"['O', 'Ba', 'Os']",17,241.7607,7.125,1,P1,1,triclinic,-130.838,-1.9966,-0.076,intercalated ion,0.2045,True,-0.0,,-0.076,-0.0673
23282,Br6Pr1Ru2Tb5,0f7b97d243,Tb5Pr(RuBr3)2,"['Br', 'Ru', 'Pr', 'Tb']",14,428.5395,6.2661,m,Pm,6,monoclinic,-77.2574,-1.4953,-0.0249,3D,0.0037,False,-0.0,,-0.0249,-0.0228
23304,F7Ho1Tb1Tl1,0f7e84c9a9,TbHoTlF7,"['F', 'Tb', 'Ho', 'Tl']",10,177.528,6.1849,mm2,Amm2,38,orthorhombic,-64.9117,-3.9953,-0.0287,intercalated ion,,False,0.0,,-0.0287,-0.0195
23327,Cl18In1K1Zr4,0f82198293,KZr4InCl18,"['Cl', 'K', 'Zr', 'In']",24,788.4438,2.4367,2,P2,3,monoclinic,-123.9443,-2.1924,-0.0211,intercalated ion,,False,0.0,,-0.0211,-0.0025
23351,Ac4Ge4O14,0f8547cf5d,Ac2Ge2O7,"['O', 'Ge', 'Ac']",22,345.0029,6.8469,1,P1,1,triclinic,-170.4381,-3.0086,-0.1761,3D,3.3492,True,0.0,,-0.1761,-0.1761
23409,Ho2Np7O20Sm1,0f8d5b449b,SmHo2Np7O20,"['O', 'Sm', 'Ho', 'Np']",30,388.3158,10.5162,1,P1,1,triclinic,-314.261,-3.6928,-0.0506,3D,0.0033,False,-0.0,,-0.0506,-0.017
23411,Br12Ge2Ho1Tb7,0f8db88847,Tb7Ho(GeBr6)2,"['Ge', 'Br', 'Tb', 'Ho']",22,769.0499,5.1422,m,Pm,6,monoclinic,-107.8111,-1.9045,-0.073,3D,0.009,True,0.0,,-0.073,-0.0255
23422,Eu1Ge1O6Pt1,0f8f542da0,EuGePtO6,"['O', 'Ge', 'Eu', 'Pt']",9,115.9296,7.3865,32,P312,149,trigonal,-68.5817,-1.9898,-0.0236,3D,0.0053,False,0.0,,-0.0236,-0.0007
23432,Br12Pr1Si4Sm11,0f9087ae58,PrSm11(SiBr3)4,"['Si', 'Br', 'Pr', 'Sm']",28,847.52,5.6154,2,C2,5,monoclinic,-143.7725,-1.6337,-0.0944,3D,0.0157,True,0.0,,-0.0944,-0.0716
23517,F16K6U2,0f9c750716,K3UF8,"['F', 'K', 'U']",24,421.2346,3.9997,6mm,P6_3mc,186,hexagonal,-144.2514,-3.5176,-0.0986,intercalated ion,0.5299,True,0.0,,-0.0986,-0.0266
23551,As4Cd1Eu1F24,0fa2229931,EuCdAs4F24,"['F', 'As', 'Cd', 'Eu']",30,524.9734,3.2264,-4,I-4,82,tetragonal,-155.1942,-2.6489,-0.0548,3D,,True,-0.0,,-0.0548,-0.0427
23602,Ba4K4O12W2,0fab64aeaf,K2Ba2WO6,"['O', 'K', 'Ba', 'W']",22,386.5008,5.4365,2,C2,5,monoclinic,-152.9315,-2.5237,-0.0155,intercalated ion,,False,0.0,,-0.0155,-0.0083
23612,Br5Cl2Nb3S1,0fad1e76a6,Nb3SBr5Cl2,"['S', 'Cl', 'Br', 'Nb']",11,299.4359,4.3322,m,Cm,8,monoclinic,-62.7313,-1.4917,-0.0219,2D,0.7738,False,0.0,,-0.0219,-0.0012
23621,Au1Br2Si1Y2,0faf93165f,Y2SiAuBr2,"['Si', 'Br', 'Y', 'Au']",6,166.917,5.5976,3m,P3m1,156,trigonal,-33.9184,-1.5021,-0.0075,2D,0.0706,True,0.0,,-0.0075,-0.0074
23623,Br13Ga2I1Te2,0fafd27553,Ga2Te2IBr13,"['Ga', 'Br', 'Te', 'I']",18,771.7501,3.3572,1,P1,1,triclinic,-52.9762,-0.9905,-0.0152,0D,2.5297,True,0.0,,-0.0152,-0.0152
23635,La1O24Pr1Tb6W4,0fb2cea5d7,LaTb6Pr(WO6)4,"['O', 'La', 'Pr', 'Tb', 'W']",36,482.7701,8.0924,2,P2,3,monoclinic,-326.8198,-3.2976,-0.0068,3D,3.585,True,0.0,,-0.0068,-0.0067
23676,Hf4Li1O24P6Tl1,0fb904356d,LiHf4Tl(PO4)6,"['Li', 'O', 'P', 'Hf', 'Tl']",36,532.5029,4.6623,1,P1,1,triclinic,-310.2774,-3.193,-0.0334,intercalated ion,5.055,False,0.0,,-0.0334,-0.028
23714,Bi3La5Li12O48W8Y4,0fbfb41ac9,Li12La5Y4Bi3(WO6)8,"['Li', 'O', 'Y', 'La', 'W', 'Bi']",80,1009.0793,6.5809,1,P1,1,triclinic,-649.1372,-2.7851,-0.0148,intercalated ion,,True,0.0,,-0.0148,-0.0105
23748,As1Br12La12Os3,0fc64a01bf,La12As(OsBr4)3,"['As', 'Br', 'La', 'Os']",28,940.8364,5.7738,32,R32,155,trigonal,-163.6782,-1.6593,-0.0862,3D,0.0038,True,0.0,,-0.0862,-0.083
23778,Ba8O30Sr8V8,0fca90031e,Ba4Sr4V4O15,"['O', 'V', 'Sr', 'Ba']",54,882.4535,5.0564,m,Cc,9,monoclinic,-407.7269,-2.9213,-0.0061,intercalated ion,,True,0.0,,-0.0061,-0.006
23790,Au2Lu1O14Y5,0fcc85b5e3,Y5Lu(AuO7)2,"['O', 'Y', 'Lu', 'Au']",22,295.8222,6.946,m,Pm,6,monoclinic,-175.9581,-2.8766,-0.0472,3D,,True,0.0,,-0.0472,-0.0281
23809,Br18C1Ga3In1Zr6,0fcf748476,Zr6InGa3CBr18,"['C', 'Ga', 'Br', 'Zr', 'In']",29,899.1081,4.2877,1,P1,1,triclinic,-146.2487,-1.5322,-0.0317,0D,1.2099,True,0.0,,-0.0317,-0.0086
23814,F28Nb3O4Se4Ta1,0fd0665937,TaNb3Se4(OF7)4,"['O', 'F', 'Se', 'Nb', 'Ta']",40,690.6854,3.2973,m,Pm,6,monoclinic,-240.4024,-2.7736,-0.0056,0D,4.5377,True,0.0,,-0.0056,-0.0056
23887,Ge3O8Rb2Zn1,0fdce29912,Rb2ZnGe3O8,"['O', 'Zn', 'Ge', 'Rb']",14,241.5864,4.0021,1,P1,1,triclinic,-85.9396,-2.0904,-0.0176,,2.6235,,0.0,,-0.0176,-0.0037
23889,Cl10Hg8Ho2Se4,0fdd6a16f8,HoHg4Se2Cl5,"['Cl', 'Se', 'Ho', 'Hg']",24,734.67,5.8878,2,P2_1,4,monoclinic,-76.9232,-1.3692,-0.0476,3D,,True,0.0,,-0.0476,-0.0204
23936,La2O14Ta2Tm2Y2,0fe42a2449,LaYTmTaO7,"['O', 'Y', 'La', 'Tm', 'Ta']",22,305.1955,7.5051,mm2,Ama2,40,orthorhombic,-210.1675,-3.8829,-0.0218,3D,3.6053,False,0.0,,-0.0218,-0.0218
23957,Bi5Ca4Ho1O18,0fe929d7c2,Ca4HoBi5O18,"['O', 'Ca', 'Ho', 'Bi']",28,404.1048,6.8136,1,P1,1,triclinic,-182.6603,-2.1979,-0.0593,intercalated ion,,True,0.0,,-0.0593,-0.013
23967,Bi1Cl2La6Pr4Sn5,0feab86988,La6Pr4Sn5BiCl2,"['Cl', 'Sn', 'La', 'Pr', 'Bi']",18,552.6567,6.8221,mm2,Amm2,38,orthorhombic,-96.5726,-1.1221,-0.0359,3D,0.0024,True,0.0,,-0.0359,-0.0356
24038,Cl2La6Pr1Sn6Tm3,0ff96657f4,La6PrTm3(Sn3Cl)2,"['Cl', 'Sn', 'La', 'Pr', 'Tm']",18,526.6354,7.1396,32,P312,149,trigonal,-95.2086,-1.0905,-0.0161,3D,0.0041,True,0.0,,-0.0161,-0.0153
24138,Br1Cl3Cu4Te8,100af5a620,Cu4Te8BrCl3,"['Cl', 'Cu', 'Br', 'Te']",16,484.5701,5.0074,1,P1,1,triclinic,-58.5295,-0.6127,-0.0989,2D,0.6603,True,0.0,,-0.0989,-0.0001
24180,La5O3Pr2Si8Tm3,10109c1824,La5Pr2Tm3Si8O3,"['O', 'Si', 'La', 'Pr', 'Tm']",21,447.6164,6.5137,mm2,Amm2,38,orthorhombic,-138.4163,-1.5476,-0.0239,3D,0.0008,True,0.0,,-0.0239,-0.0233
24202,Ce1La5Np1O12,1014669362,La5CeNpO12,"['O', 'La', 'Ce', 'Np']",19,312.5953,6.7126,1,P1,1,triclinic,-178.5742,-3.9809,-0.176,3D,,False,0.0,,-0.176,-0.1616
24217,La2Mo4O24Pr5Y1,1017248699,La2Pr5Y(MoO6)4,"['O', 'Y', 'Mo', 'La', 'Pr']",36,526.3331,5.8019,2,C2,5,monoclinic,-315.0178,-3.1289,-0.0027,3D,2.3591,True,0.0,,-0.0027,-0.0027
24233,Br2Pr9Tb1Tl6,101aa53c7b,TbPr9(Tl3Br)2,"['Br', 'Pr', 'Tb', 'Tl']",18,543.684,8.5922,32,P312,149,trigonal,-76.7652,-0.6477,-0.0218,3D,,True,0.0,,-0.0218,-0.0195
24319,Ac1O20Pr7Tc4,102a4186db,AcPr7(TcO5)4,"['O', 'Tc', 'Pr', 'Ac']",32,457.4869,6.9884,1,P1,1,triclinic,-277.2422,-3.1017,-0.0601,3D,,True,0.0,,-0.0601,-0.0601
24345,Ac5O14Sm1Ta2,102f84c2d4,Ac5SmTa2O14,"['O', 'Sm', 'Ta', 'Ac']",22,358.2443,8.6736,m,Pm,6,monoclinic,-200.976,-3.7575,-0.0915,3D,,True,0.0,,-0.0915,-0.0915
24350,O16Pr1Sr3W4,103028c556,Sr3Pr(WO4)4,"['O', 'Sr', 'Pr', 'W']",24,374.4261,6.1872,1,P1,1,triclinic,-207.9605,-2.7963,-0.0098,intercalated ion,,False,-0.0,,-0.0098,-0.0092
24371,Br12Ge1Pr12Si3,1035c64053,Pr12Si3GeBr12,"['Si', 'Ge', 'Br', 'Pr']",28,900.2964,5.1767,32,R32,155,trigonal,-145.1086,-1.6856,-0.1181,3D,0.0095,True,0.0,,-0.1181,-0.0935
24465,As6Nb3O24Tb1,10445d5e69,TbNb3(AsO4)6,"['O', 'As', 'Nb', 'Tb']",34,585.4512,3.6054,3,R3,146,trigonal,-259.0913,-2.2779,-0.0279,3D,3.0563,True,0.0,,-0.0279,-0.0115
24494,Cs2O12Ti1U3,1049618378,Cs2U3TiO12,"['O', 'Ti', 'Cs', 'U']",18,328.8185,6.1598,2,C2,5,monoclinic,-164.3472,-3.4117,-0.0136,intercalated ion,1.7479,True,0.0,,-0.0136,-0.0136
24530,La3O19Sr2U5,1050523433,Sr2La3U5O19,"['O', 'Sr', 'La', 'U']",29,431.1948,8.0336,1,P1,1,triclinic,-280.1838,-3.8458,-0.0078,intercalated ion,0.1412,True,0.0,,-0.0078,-0.0078
24607,Ag4As1F28Rh3,105c644648,Ag4AsRh3F28,"['F', 'As', 'Rh', 'Ag']",36,584.8364,3.8248,m,Pm,6,monoclinic,-154.8082,-1.7557,-0.0039,3D,0.0002,True,0.0,,-0.0039,-0.003
24631,Cl8Tb1Tc2Tm7,106098a9d2,TbTm7(TcCl4)2,"['Cl', 'Tc', 'Tb', 'Tm']",18,483.3936,6.2557,1,P1,1,triclinic,-102.2789,-1.7113,-0.0609,3D,,True,0.0,,-0.0609,-0.0394
24651,La1O18Pr1Ta6,1063e7fcac,LaPrTa6O18,"['O', 'La', 'Pr', 'Ta']",26,347.7894,7.8947,m,Pm,6,monoclinic,-261.4341,-3.5195,-0.0026,3D,3.1688,True,0.0,,-0.0026,-0.0026
24693,Al1Cl16V3,106b50bbe9,AlV3Cl16,"['Al', 'Cl', 'V']",20,678.8204,1.8275,1,P1,1,triclinic,-93.9632,-1.6695,-0.015,0D,0.0006,True,0.0,,-0.015,-0.0073
24703,Cl16Re4Se8,106d293c8e,Re(SeCl2)2,"['Cl', 'Se', 'Re']",28,882.8364,3.656,-4,I-4,82,tetragonal,-135.1041,-0.9922,-0.1283,0D,2.202,True,0.0,,-0.1283,-0.0482
24707,F28Sm3Tb1Tc4,106dd970ea,TbSm3Tc4F28,"['F', 'Tc', 'Sm', 'Tb']",36,559.4171,4.5533,1,P1,1,triclinic,-234.679,-3.359,-0.0889,3D,,True,0.0,,-0.0889,-0.0889
24716,Ba6Ir1Np1O12,106eae484b,Ba6NpIrO12,"['O', 'Ba', 'Ir', 'Np']",20,364.9693,6.5752,1,P1,1,triclinic,-149.5199,-2.8422,-0.1104,intercalated ion,,True,-0.0,,-0.1104,-0.0726
24725,F28Tb3Tc4Y1,1070d1160a,Tb3YTc4F28,"['F', 'Y', 'Tc', 'Tb']",36,538.5767,4.5928,1,P1,1,triclinic,-236.5249,-3.3664,-0.0936,3D,1.619,False,0.0,,-0.0936,-0.0936
24757,Al3O14Si2Sr3Ta1,1075f43e09,Sr3TaAl3(SiO7)2,"['O', 'Al', 'Si', 'Sr', 'Ta']",23,302.9103,4.4125,32,P321,150,trigonal,-188.252,-3.4768,-0.0085,intercalated ion,4.5379,True,-0.0,,-0.0085,-0.0074
24834,Bi4Ho1La3O22Ta4,10844cacfd,La3HoTa4(Bi2O11)2,"['O', 'La', 'Ho', 'Ta', 'Bi']",34,505.41,8.192,1,P1,1,triclinic,-297.2254,-3.1173,-0.0073,3D,3.2692,True,0.0,,-0.0073,-0.0073
24856,F28Ge4Ho1Y3,108737a1ac,Y3HoGe4F28,"['F', 'Ge', 'Y', 'Ho']",36,491.4709,4.2375,1,P1,1,triclinic,-222.4437,-3.524,-0.0459,3D,,True,0.0,,-0.0459,-0.0458
24859,La1Na1O16Te6,1087c76af5,NaLa(Te3O8)2,"['O', 'Na', 'Te', 'La']",24,346.6217,5.6697,2,C2,5,monoclinic,-148.2168,-1.8303,-0.0198,intercalated ion,,True,0.0,,-0.0198,-0.0198
24862,Cl16Ga4In1Tl3,10884683b9,Tl3In(GaCl4)4,"['Cl', 'Ga', 'In', 'Tl']",24,770.6362,3.3918,2,P2,3,monoclinic,-88.7688,-1.5518,-0.0145,intercalated ion,,True,0.0,,-0.0145,-0.0036
24875,Be4Gd1O14Si2Tb3,108a534a57,Tb3GdBe4(SiO7)2,"['Be', 'O', 'Si', 'Gd', 'Tb']",24,261.7402,6.0285,m,Cm,8,monoclinic,-208.827,-3.5737,-0.0241,intercalated ion,,True,0.0,,-0.0241,-0.0025
24880,Cu4Ho1Na1O8,108ab71c5e,NaHo(CuO2)4,"['O', 'Na', 'Cu', 'Ho']",14,153.868,6.1525,-4,I-4,82,tetragonal,-84.6333,-1.6248,-0.0447,intercalated ion,0.6796,True,0.0,,-0.0447,-0.0441