Unnamed: 0,Composition,MaterialId,Reduced Formula,Elements,NSites,Volume,Density,Point Group,Space Group,Space Group Number,Crystal System,Corrected Energy,Formation Energy Per Atom,Decomposition Energy Per Atom,Dimensionality Cheon,Bandgap,Is Train,Decomposition Energy Per Atom All,Decomposition Energy Per Atom Relative,Decomposition Energy Per Atom MP,Decomposition Energy Per Atom MP OQMD
32226,Cs6Ir5O15,1586003030,Cs6(IrO3)5,"['O', 'Cs', 'Ir']",26,521.0624,6.3689,32,R32,155,trigonal,-162.4535,-1.4873,-0.1924,intercalated ion,,True,0.0,,-0.1924,-0.0387
32254,Au2Ho2O14Tm4,158a96b6ab,HoTm2AuO7,"['O', 'Ho', 'Tm', 'Au']",22,287.6295,9.3729,222,C222_1,20,orthorhombic,-167.328,-2.9291,-0.0474,3D,0.2044,True,0.0,,-0.0474,-0.0302
32260,F28Hf3Pt1Tb4,158bf394bb,Tb4Hf3PtF28,"['F', 'Tb', 'Hf', 'Pt']",36,553.2949,5.6969,1,P1,1,triclinic,-251.2096,-3.978,-0.0042,3D,2.6541,True,0.0,,-0.0042,-0.0029
32261,Br1C2Pa2Se1,158c084678,Pa2C2SeBr,"['C', 'Se', 'Br', 'Pa']",6,137.1733,7.8075,m,Cm,8,monoclinic,-49.3233,-1.1179,-0.2521,2D,,False,0.0,,-0.2521,-0.1345
32308,Br2Ho7In6Tb3,159393ffc2,Tb3Ho7(In3Br)2,"['Br', 'In', 'Tb', 'Ho']",18,492.8357,8.356,mm2,Amm2,38,orthorhombic,-78.0792,-0.6842,-0.0192,3D,0.0018,True,0.0,,-0.0192,-0.0072
32320,Ac20Cl1Si15,1595e52bea,Ac20Si15Cl,"['Si', 'Cl', 'Ac']",36,1129.9889,7.3428,1,P1,1,triclinic,-186.8378,-0.5885,-0.3195,3D,0.0004,False,0.0,,-0.3195,-0.245
32325,Br6C2Ho1Sm5,159647a4a3,Sm5Ho(CBr3)2,"['C', 'Br', 'Sm', 'Ho']",14,374.9905,6.2888,m,Pm,6,monoclinic,-77.7616,-1.5222,-0.1257,2D,,True,0.0,,-0.1257,-0.0035
32344,La5Li1O12Ru1,1598d48b3e,LiLa5RuO12,"['Li', 'O', 'Ru', 'La']",19,292.2635,5.6506,2,C2,5,monoclinic,-153.3186,-3.0567,-0.0247,intercalated ion,,True,0.0,,-0.0247,-0.0104
32350,Ga2O12Sb2V2,15996e7a16,VGaSbO6,"['O', 'V', 'Ga', 'Sb']",18,196.2153,5.728,4mm,P4_2nm,102,tetragonal,-131.7114,-2.2141,-0.017,3D,1.6424,True,0.0,,-0.017,-0.0167
32396,Br14Cl2F4Ta4,15a0d20551,Ta2Br7ClF2,"['F', 'Cl', 'Br', 'Ta']",24,844.1531,3.9133,1,P1,1,triclinic,-126.8289,-1.8807,-0.0082,0D,2.2964,True,0.0,,-0.0082,-0.0055
32450,Br12Ir1Pr12Pt2Ru1,15aa596a58,Pr12IrRu(PtBr6)2,"['Br', 'Ru', 'Pr', 'Ir', 'Pt']",28,916.1744,6.0413,2,C2,5,monoclinic,-153.3373,-1.6453,-0.0047,3D,inf,True,0.0,,-0.0047,-0.0017
32465,K2O4Rb1Sb1,15aca1906a,K2RbSbO4,"['O', 'K', 'Rb', 'Sb']",8,175.4356,3.3074,-42m,I-42m,121,tetragonal,-42.4384,-1.9145,-0.0897,intercalated ion,2.6184,True,0.0,,-0.0897,-0.0546
32470,F28Ho3Ru4Y1,15ad5730ed,YHo3Ru4F28,"['F', 'Y', 'Ru', 'Ho']",36,527.3371,4.7861,1,P1,1,triclinic,-223.0826,-3.1181,-0.0352,3D,0.0017,True,0.0,,-0.0352,-0.0307
32506,Ba12Na3O27Ru6,15b477c7d8,Ba4NaRu2O9,"['O', 'Na', 'Ru', 'Ba']",48,775.9957,5.896,32,P321,150,trigonal,-330.4874,-2.3799,-0.0121,intercalated ion,,True,0.0,,-0.0121,-0.0121
32525,F28Hf4Tm1Y3,15b7d2710e,Y3TmHf4F28,"['F', 'Y', 'Tm', 'Hf']",36,552.6914,5.0522,1,P1,1,triclinic,-272.6618,-4.3177,-0.0047,3D,7.0022,True,0.0,,-0.0047,-0.0024
32673,B2Cl12Tb7Y1,15d2d5bc0d,Tb7Y(BCl6)2,"['B', 'Cl', 'Y', 'Tb']",22,652.1519,4.1973,m,Pm,6,monoclinic,-121.6574,-2.1459,-0.0246,3D,0.0034,True,0.0,,-0.0246,-0.0186
32683,Br3Ce1S24,15d4a4199c,Ce(S8Br)3,"['S', 'Br', 'Ce']",28,891.6869,2.1404,3m,R3m,160,trigonal,-130.6888,-0.7346,-0.4113,0D,,True,0.0,,-0.4113,-0.3779
32704,C2Cl2Pr2Tb2,15d82af77b,TbPrCCl,"['C', 'Cl', 'Pr', 'Tb']",8,170.3864,6.7693,6mm,P6_3mc,186,hexagonal,-50.61,-1.2036,-0.0744,3D,0.0066,True,0.0,,-0.0744,-0.0022
32738,Cs3F12Rb1V2,15dfbef622,Cs3RbV2F12,"['F', 'V', 'Rb', 'Cs']",18,376.0666,3.5945,-42m,P-4m2,115,tetragonal,-101.8267,-3.1697,-0.0269,intercalated ion,2.069,True,0.0,,-0.0269,-0.0041
32743,Cd1F15U3,15e09a4f35,U3CdF15,"['F', 'Cd', 'U']",19,317.3268,5.8162,3m,R3m,160,trigonal,-133.9892,-3.7116,-0.0075,3D,,True,0.0,,-0.0075,-0.0072
32776,Gd2Lu2O14Ta1Tm2W1,15e5f6f926,Gd2Tm2Lu2TaWO14,"['O', 'Gd', 'Tm', 'Lu', 'Ta', 'W']",22,290.7408,9.0873,1,P1,1,triclinic,-221.6936,-3.7009,-0.0035,3D,,False,0.0,,-0.0035,-0.0019
32820,As1La2O2P1Rh2,15ed84d143,La2AsP(RhO)2,"['O', 'P', 'As', 'Rh', 'La']",8,144.7772,7.1286,4mm,P4mm,99,tetragonal,-62.2966,-2.216,-0.0473,3D,,True,0.0,,-0.0473,-0.0035
32822,Br10La5Pr1Tc1,15edab9571,La5PrTcBr10,"['Br', 'Tc', 'La', 'Pr']",17,652.2002,4.411,1,P1,1,triclinic,-89.4697,-1.9576,-0.0373,3D,0.1643,False,0.0,,-0.0373,-0.0373
32836,Br18Ta6Tl1Y1,15f0a9da21,YTa6TlBr18,"['Br', 'Y', 'Ta', 'Tl']",26,785.0826,5.9588,3,R3,146,trigonal,-146.4316,-1.4228,-0.0019,intercalated ion,,True,0.0,,-0.0019,-0.0019
32904,Ga5O1P1Ti10,15fbd2ad9a,Ti10Ga5PO,"['O', 'P', 'Ti', 'Ga']",17,257.8066,5.6311,m,Cm,8,monoclinic,-119.4009,-0.8791,-0.0373,3D,0.0009,True,-0.0,,-0.0373,-0.0344
32974,Ag2K4O14P4,1608020c97,K2AgP2O7,"['O', 'P', 'K', 'Ag']",24,404.6059,2.955,-42m,P-42_1m,113,tetragonal,-156.6401,-2.317,-0.0003,intercalated ion,,True,-0.0,,-0.0003,-0.0003
33063,F12Gd3Ho1,1617406351,Gd3HoF12,"['F', 'Gd', 'Ho']",16,205.2282,6.9961,m,Pm,6,monoclinic,-140.3686,-4.4138,-0.2128,3D,4.4632,True,0.0,,-0.2128,-0.0012
33069,F28Pr2Rh4Sm2,161854506f,PrSmRh2F14,"['F', 'Rh', 'Pr', 'Sm']",36,558.7695,4.5353,2,P2_1,4,monoclinic,-209.0877,-2.9753,-0.0382,3D,0.0002,True,0.0,,-0.0382,-0.0353
33072,Eu1O18P6Re1,16187b3097,EuRe(PO3)6,"['O', 'P', 'Eu', 'Re']",26,411.3428,3.278,32,P312,149,trigonal,-212.1388,-2.61,-0.0141,3D,,False,0.0,,-0.0141,-0.0115
33111,F28Tb4V1Zr3,161f090ef4,Tb4Zr3VF28,"['F', 'V', 'Zr', 'Tb']",36,560.5135,4.4209,1,P1,1,triclinic,-254.4147,-4.1008,-0.0106,3D,2.1453,True,-0.0,,-0.0106,-0.0091
33118,F18Os1S1Se1,1620924d7f,OsSeSF18,"['F', 'S', 'Se', 'Os']",21,361.3875,2.9556,3m,P3m1,156,trigonal,-96.4164,-2.0548,-0.1676,0D,0.7737,True,0.0,,-0.1676,-0.0032
33137,Ag4In2O28P8Tl2,1623476a53,TlInAg2(P2O7)2,"['O', 'P', 'Ag', 'In', 'Tl']",44,611.6011,4.7939,2,P2_1,4,monoclinic,-298.3015,-2.1567,-0.0111,3D,,True,0.0,,-0.0111,-0.0108
33254,Ag2O12Te3Ti1,1635e0146a,TiAg2(TeO4)3,"['O', 'Ti', 'Ag', 'Te']",18,270.4366,5.1479,2,C2,5,monoclinic,-110.5665,-1.5667,-0.0099,3D,0.675,True,0.0,,-0.0099,-0.0099
33271,Ge3Ho10O2Pb3,1638864cc2,Ho10Ge3Pb3O2,"['O', 'Ge', 'Ho', 'Pb']",18,437.6516,9.5645,mm2,Fmm2,42,orthorhombic,-104.2489,-1.3068,-0.0109,3D,0.0005,False,0.0,,-0.0109,-0.0109
33275,Ac3O12Sr1V4,1638f42536,SrAc3V4O12,"['O', 'V', 'Sr', 'Ac']",20,257.5562,7.5071,1,P1,1,triclinic,-173.1893,-3.1713,-0.0852,intercalated ion,0.682,True,0.0,,-0.0852,-0.0038
33286,Br6La9Si14Th3,1639f2e751,La9Th3(Si7Br3)2,"['Si', 'Br', 'La', 'Th']",32,829.8218,5.6408,m,Pm,6,monoclinic,-189.6617,-1.1631,-0.0121,3D,0.0031,True,0.0,,-0.0121,-0.0044
33351,Au2Lu2O14Y4,16450dcea8,Y2LuAuO7,"['O', 'Y', 'Lu', 'Au']",22,292.6555,7.5095,mm2,Ama2,40,orthorhombic,-174.423,-2.8953,-0.0484,3D,,True,0.0,,-0.0484,-0.0293
33493,B1Br12Pr7,165cd823e3,Pr7BBr12,"['B', 'Br', 'Pr']",20,693.1463,4.6859,3,R3,146,trigonal,-98.7255,-1.9468,-0.0205,3D,,True,0.0,,-0.0205,-0.0195
33514,F28Pu3Re4Sm1,165f915fb7,SmPu3Re4F28,"['F', 'Sm', 'Re', 'Pu']",36,573.9558,6.2467,1,P1,1,triclinic,-264.1184,-3.1471,-0.0253,3D,,True,0.0,,-0.0253,-0.0209
33543,Au2Br12Pr12Rh2,16655ad1e9,Pr6RhAuBr6,"['Br', 'Rh', 'Pr', 'Au']",28,926.4273,5.8244,222,F222,22,orthorhombic,-142.8373,-1.591,-0.0045,3D,,True,0.0,,-0.0045,-0.004
33549,La5Nb1O12Ru1,1666e68594,La5NbRuO12,"['O', 'Nb', 'Ru', 'La']",19,297.2327,6.0364,2,C2,5,monoclinic,-168.5742,-3.4286,-0.0164,3D,0.6972,True,0.0,,-0.0164,-0.0164
33552,Bi10La14O10Pr4,166712c026,La7Pr2(BiO)5,"['O', 'La', 'Pr', 'Bi']",38,1057.48,7.4716,1,P1,1,triclinic,-263.1122,-2.2764,-0.0296,3D,0.0009,True,0.0,,-0.0296,-0.0294
33611,Ca2Mg2O12Ru2Y2,167129849b,CaYMgRuO6,"['O', 'Mg', 'Ca', 'Y', 'Ru']",20,236.0912,4.9284,m,Pc,7,monoclinic,-154.155,-2.8043,-0.0102,intercalated ion,0.2941,False,0.0,,-0.0102,-0.0102
33630,K11Li1O16V4,1674a34e4e,K11LiV4O16,"['Li', 'O', 'K', 'V']",32,578.6278,2.5736,-42m,I-42m,121,tetragonal,-203.9871,-2.3238,-0.0133,intercalated ion,3.9012,False,0.0,,-0.0133,-0.0119
33643,Br15Lu1Pt1Th5,16763c6015,LuTh5PtBr15,"['Br', 'Lu', 'Pt', 'Th']",22,812.9588,5.5738,4mm,I4mm,107,tetragonal,-117.0103,-2.0361,-0.0408,3D,0.8108,True,-0.0,,-0.0408,-0.0194
33712,Bi2O12Tb5,1680fcffcf,Tb5(BiO6)2,"['O', 'Tb', 'Bi']",19,278.3139,8.3803,1,P1,1,triclinic,-150.0609,-3.1439,-0.0615,3D,0.006,True,0.0,,-0.0615,-0.0311
33730,Cu4Hg1Ho1O8,1684b34116,HoCu4HgO8,"['O', 'Cu', 'Ho', 'Hg']",14,157.6213,7.877,-4,I-4,82,tetragonal,-81.251,-1.456,-0.0229,3D,0.0013,True,0.0,,-0.0229,-0.0229
33773,Bi2La3O14Tb3,168ca89b73,La3Tb3(BiO7)2,"['O', 'La', 'Tb', 'Bi']",22,335.7669,7.5936,1,P1,1,triclinic,-176.0527,-3.195,-0.0983,3D,1.4118,True,0.0,,-0.0983,-0.0626
33878,Ho2Lu2O12Re2Tm1,169b8e96a3,Ho2TmLu2(ReO6)2,"['O', 'Ho', 'Tm', 'Lu', 'Re']",19,244.8654,9.5831,m,Cm,8,monoclinic,-171.3538,-3.3898,-0.0014,3D,,True,0.0,,-0.0014,-0.0014
33943,B2Br12Sc1Y7,16a65b80ad,Y7Sc(BBr6)2,"['B', 'Sc', 'Br', 'Y']",22,700.4207,3.9065,m,Pm,6,monoclinic,-124.8459,-1.8294,-0.0057,3D,0.0035,True,0.0,,-0.0057,-0.0057
34092,Au2Gd4O14Tb2,16bd819579,TbGd2AuO7,"['O', 'Gd', 'Tb', 'Au']",22,305.5735,8.5033,mm2,Ama2,40,orthorhombic,-203.9764,-2.8447,-0.0193,3D,,True,0.0,,-0.0193,-0.015
34094,Br18Cs6Np3Y1,16bdb82473,Cs6Y(NpBr6)3,"['Br', 'Y', 'Cs', 'Np']",28,1171.9904,4.301,3,R3,146,trigonal,-136.9438,-2.0285,-0.0308,intercalated ion,,True,0.0,,-0.0308,-0.028
34095,F20Ir2O2Re2,16bdc3d9aa,ReIrOF10,"['O', 'F', 'Re', 'Ir']",26,452.4445,4.2897,2,P2,3,monoclinic,-146.7805,-2.1573,-0.0299,0D,0.0798,True,0.0,,-0.0299,-0.0253
34132,Ag1Cl12Ir3,16c4e8336e,Ag(IrCl4)3,"['Cl', 'Ag', 'Ir']",16,421.5988,4.3717,2,C2,5,monoclinic,-66.2467,-0.9198,-0.0837,3D,0.0034,True,0.0,,-0.0837,-0.0237
34141,Cs1Hg1O9P3,16c6c5a495,CsHg(PO3)3,"['O', 'P', 'Cs', 'Hg']",14,267.4144,3.542,3,R3,146,trigonal,-95.2649,-2.3782,-0.0073,3D,3.1985,True,0.0,,-0.0073,-0.0073
34145,Bi6O18Rh3,16c7e0a323,Bi2RhO6,"['O', 'Rh', 'Bi']",27,378.6912,8.1147,32,P321,150,trigonal,-172.707,-1.4152,-0.035,3D,0.0073,False,0.0,,-0.035,-0.035
34167,F34Pa1U1,16caf7c34e,UPaF34,"['F', 'Pa', 'U']",36,723.506,2.5591,1,P1,1,triclinic,-145.717,-1.6645,-0.9473,0D,,True,0.0,,-0.9473,-0.5446
34178,Eu2O14Ta2Tb3Y1,16cc5ef893,Tb3Eu2YTa2O14,"['O', 'Y', 'Eu', 'Tb', 'Ta']",22,304.3114,7.9422,m,Pm,6,monoclinic,-215.441,-3.7046,-0.0325,3D,0.0019,True,0.0,,-0.0325,-0.0112
34245,In4O18Te3Tm2,16d8646338,Tm2In4(TeO6)3,"['O', 'In', 'Te', 'Tm']",27,352.3715,6.9176,2,C2,5,monoclinic,-179.0456,-2.2442,-0.0107,3D,,True,0.0,,-0.0107,-0.0107
34264,Eu2In6La1O18Sm3,16dbee040f,LaSm3Eu2In6O18,"['O', 'In', 'La', 'Sm', 'Eu']",30,455.4857,6.8203,3,P3,143,trigonal,-230.5981,-2.845,-0.0172,3D,,True,0.0,,-0.0172,-0.0111
34306,La5O12Pa1Th1,16e3753c39,La5ThPaO12,"['O', 'La', 'Th', 'Pa']",19,319.0411,7.0243,1,P1,1,triclinic,-178.158,-4.0618,-0.0254,3D,3.3702,True,0.0,,-0.0254,-0.0137
34366,O19Os6Pr3Sr1,16eb2f907e,SrPr3Os6O19,"['O', 'Sr', 'Pr', 'Os']",29,384.8388,8.4387,3,R3,146,trigonal,-242.0721,-2.2298,-0.0719,intercalated ion,0.0022,False,0.0,,-0.0719,-0.0354
34395,Eu4F3H9Pt2,16f1a880b2,Eu4H9Pt2F3,"['H', 'F', 'Eu', 'Pt']",18,216.8249,8.1493,2,C2,5,monoclinic,-116.9926,-1.523,-0.1778,3D,0.0868,True,0.0,,-0.1778,-0.1047
34413,Bi5Cl2Hg1Tb10,16f5662e2b,Tb10HgBi5Cl2,"['Cl', 'Tb', 'Hg', 'Bi']",18,487.1333,9.9048,mm2,Amm2,38,orthorhombic,-87.6559,-0.9923,-0.012,3D,0.0033,False,0.0,,-0.012,-0.0079
34421,Br6Na1Pb1Sm1,16f6c110e8,NaSmPbBr6,"['Na', 'Br', 'Sm', 'Pb']",9,346.4264,4.1221,3,R3,146,trigonal,-36.3895,-1.8677,-0.0099,intercalated ion,,True,0.0,,-0.0099,-0.0062
34472,C4Cs2Na2O12,16fe0baa99,CsNa(CO3)2,"['C', 'O', 'Na', 'Cs']",20,358.5962,2.5553,2,P2_1,4,monoclinic,-137.1496,-1.8216,-0.0391,intercalated ion,0.862,True,0.0,,-0.0391,-0.0379
34485,O24Sm1Tb1Tm6W4,170048eaad,TbSmTm6(WO6)4,"['O', 'Sm', 'Tb', 'Tm', 'W']",36,455.082,8.9114,2,P2,3,monoclinic,-326.8205,-3.3341,-0.0054,3D,3.6444,True,0.0,,-0.0054,-0.0052
34513,Ho5O12Pu1Ta1,1703dee879,Ho5PuTaO12,"['O', 'Ho', 'Ta', 'Pu']",19,260.5545,9.1874,1,P1,1,triclinic,-182.1999,-3.8835,-0.0011,3D,,True,0.0,,-0.0011,-0.0011
34536,As3Br18Cs5Rb1Sc1,170790a8de,Cs5RbSc(AsBr6)3,"['Sc', 'As', 'Br', 'Rb', 'Cs']",28,1058.6111,3.8556,3m,P3m1,156,trigonal,-100.553,-1.6186,-0.0463,intercalated ion,2.482,False,0.0,,-0.0463,-0.0044
34539,Cs4F20V4,1707f5a091,CsVF5,"['F', 'V', 'Cs']",28,525.6092,3.5237,mm2,Pmc2_1,26,orthorhombic,-166.6586,-3.1611,-0.0524,intercalated ion,2.0957,True,0.0,,-0.0524,-0.0387
34546,Ba10Cl2O30Tc6,17099c2bb7,Ba5Tc3ClO15,"['O', 'Cl', 'Tc', 'Ba']",48,841.7341,4.9559,6mm,P6_3cm,185,hexagonal,-357.5808,-2.5852,-0.3281,intercalated ion,1.7112,True,0.0,,-0.3281,-0.3226
34589,Bi4Mo4O32P4Rb5Tl3,1712452f74,Rb5Tl3Bi4Mo4(PO8)4,"['O', 'P', 'Rb', 'Mo', 'Tl', 'Bi']",52,945.9511,5.0838,1,P1,1,triclinic,-365.8515,-2.2103,-0.0046,1D,,True,-0.0,,-0.0046,-0.0045
34613,C1O5Sc2,17159b8f1c,Sc2CO5,"['C', 'O', 'Sc']",8,94.6044,3.1931,1,P1,1,triclinic,-71.7978,-3.1458,-0.0009,3D,,True,0.0,,-0.0009,-0.0009
34678,Cu2La1O8Pd2Sr1,172151eb5b,SrLaCu2(PdO4)2,"['O', 'Cu', 'Sr', 'Pd', 'La']",14,179.1125,6.4382,2,C2,5,monoclinic,-90.5475,-1.8414,-0.0688,intercalated ion,0.0429,False,0.0,,-0.0688,-0.0454
34693,Bi2F28Sm2W4,1723c84d9b,SmBi(WF7)2,"['F', 'Sm', 'W', 'Bi']",36,590.6325,5.5835,2,P2_1,4,monoclinic,-236.4568,-3.1635,-0.0982,3D,,True,0.0,,-0.0982,-0.0866
34703,F18Ga3Li3V3,1725f7d9fd,LiVGaF6,"['Li', 'F', 'V', 'Ga']",27,314.7762,3.8235,32,P321,150,trigonal,-158.5379,-3.0396,-0.0128,intercalated ion,2.1701,True,0.0,,-0.0128,-0.012
34759,O16Pd3Ti1Zn8,172f5bf453,TiZn8Pd3O16,"['O', 'Ti', 'Zn', 'Pd']",28,319.9985,5.9489,2,P2,3,monoclinic,-159.3251,-1.6659,-0.0323,3D,1.2639,True,0.0,,-0.0323,-0.0099
34792,F20Rb4Ti4,17340c9c92,RbTiF5,"['F', 'Ti', 'Rb']",28,483.1276,3.1391,mm2,Pmc2_1,26,orthorhombic,-175.4581,-3.633,-0.0857,intercalated ion,4.4161,False,0.0,,-0.0857,-0.0375
34867,F1Ir1S1,173edb669c,IrSF,"['F', 'S', 'Ir']",3,51.8049,7.798,3m,P3m1,156,trigonal,-18.311,-1.1415,-0.0135,2D,1.534,True,0.0,,-0.0135,-0.0107
34875,Br24Nb2Rb8Rh1Sb1,1740ee9dec,Rb8Nb2SbRhBr24,"['Br', 'Rb', 'Nb', 'Rh', 'Sb']",36,1308.0789,3.8235,-4,I-4,82,tetragonal,-135.6199,-1.5776,-0.0177,intercalated ion,0.4288,True,0.0,,-0.0177,-0.0177
34876,Al2Cs3F1K1Nb11O20,174125f082,Cs3KNb11Al2O20F,"['O', 'F', 'Al', 'K', 'Nb', 'Cs']",38,509.2798,6.041,mm2,Imm2,44,orthorhombic,-326.0477,-2.7046,-0.0032,intercalated molecule,,True,0.0,,-0.0032,-0.0025
34923,Gd1In6La4O18Sm1,1747f9df06,La4SmGdIn6O18,"['O', 'In', 'La', 'Sm', 'Gd']",30,469.5475,6.5076,3m,P31m,157,trigonal,-232.5228,-2.947,-0.0095,3D,2.0335,True,0.0,,-0.0095,-0.0011
34924,Cl6Ir1Pb1,17481d4553,IrPbCl6,"['Cl', 'Ir', 'Pb']",8,248.3007,4.0937,3,R3,146,trigonal,-33.0629,-1.1776,-0.0593,2D,0.0185,True,0.0,,-0.0593,-0.039
34926,Ba1O18Ta1W5,1748670c80,BaTaW5O18,"['O', 'Ba', 'Ta', 'W']",25,383.5783,6.6038,2,P2,3,monoclinic,-229.6689,-2.4815,-0.0111,intercalated ion,0.8542,True,0.0,,-0.0111,-0.0072
34947,Cl24Mo1W11,174c89256f,MoW11Cl24,"['Cl', 'Mo', 'W']",36,1012.8374,4.8677,m,Cm,8,monoclinic,-239.4659,-1.1588,-0.0069,2D,,False,-0.0,,-0.0069,-0.005
34952,O16Sm1U5,174d9116d8,SmU5O16,"['O', 'Sm', 'U']",22,345.2952,7.6776,m,Pm,6,monoclinic,-221.5538,-3.6914,-0.0169,3D,0.0007,True,0.0,,-0.0169,-0.0106
34972,Ba10F1Ir4O19,1750e6f47b,Ba10Ir4O19F,"['O', 'F', 'Ba', 'Ir']",34,577.4149,7.0892,m,Cm,8,monoclinic,-232.8811,-2.424,-0.0702,intercalated ion,0.002,True,0.0,,-0.0702,-0.0392
34988,Br10Pr5Rh1Sm1,175427445e,Pr5SmRhBr10,"['Br', 'Rh', 'Pr', 'Sm']",17,633.5451,4.6047,1,P1,1,triclinic,-85.4202,-1.9449,-0.0001,3D,0.0039,True,0.0,,-0.0001,-0.0001
35036,La4O19Pd5Te1,175c3793e3,La4TePd5O19,"['O', 'Pd', 'Te', 'La']",29,379.1553,6.6539,2,C2,5,monoclinic,-202.377,-2.0544,-0.0774,3D,1.2319,True,0.0,,-0.0774,-0.0413
35068,Ac4O4Se3,17614cf66e,Ac4Se3O4,"['O', 'Se', 'Ac']",11,258.254,7.7729,mm2,Amm2,38,orthorhombic,-81.9699,-3.2005,-0.4254,3D,,True,0.0,,-0.4254,-0.0043
35129,Ag4Ho1O12Sm3,176ba7c365,Sm3Ho(AgO3)4,"['O', 'Ag', 'Sm', 'Ho']",20,286.8682,7.1747,m,Pm,6,monoclinic,-132.9611,-2.1759,-0.0334,3D,,True,0.0,,-0.0334,-0.033
35204,Br10Pt1Sm3Tb3,1778e75daf,Tb3Sm3PtBr10,"['Br', 'Sm', 'Tb', 'Pt']",17,591.3391,5.3971,1,P1,1,triclinic,-84.2271,-1.984,-0.0229,3D,0.6554,False,0.0,,-0.0229,-0.0153
35231,Br1C2Cl9Pr6,177d10c7dd,Pr6C2BrCl9,"['C', 'Cl', 'Br', 'Pr']",18,535.5801,3.9328,1,P1,1,triclinic,-104.3764,-2.1646,-0.0298,3D,0.6514,True,0.0,,-0.0298,-0.0247
35232,Cl12Pd1Pt5,177d3923e1,PdPt5Cl12,"['Cl', 'Pd', 'Pt']",18,519.3708,4.8191,m,Cm,8,monoclinic,-72.1646,-0.8027,-0.0031,0D,1.3097,True,0.0,,-0.0031,-0.0019
35277,K3O9Si3Tb1,1782924f1b,K3Tb(SiO3)3,"['O', 'Si', 'K', 'Tb']",16,250.7758,3.3404,1,P1,1,triclinic,-118.6818,-3.1193,-0.0366,intercalated ion,,True,0.0,,-0.0366,-0.0024
35278,Cl12Pa2Sr1Tl1,1782a91d6d,SrPa2TlCl12,"['Cl', 'Sr', 'Tl', 'Pa']",16,537.9822,3.6407,-4,P-4,81,tetragonal,-83.022,-2.3599,-0.04,intercalated ion,,True,0.0,,-0.04,-0.04
35326,O20Sm1U8Y1,178c773bbb,SmYU8O20,"['O', 'Y', 'Sm', 'U']",30,396.684,10.3123,1,P1,1,triclinic,-315.1643,-3.823,-0.0237,3D,0.001,True,0.0,,-0.0237,-0.0139
35393,Ca8O24Rb2V6,179586720f,RbCa4V3O12,"['O', 'Ca', 'V', 'Rb']",40,596.6435,3.2874,m,Cc,9,monoclinic,-308.4269,-2.9292,-0.014,intercalated ion,,True,0.0,,-0.014,-0.0127
35404,Cl18Nb4Pa1Ta2,17978e2aee,PaTa2(Nb2Cl9)2,"['Cl', 'Nb', 'Ta', 'Pa']",25,696.1271,3.8231,1,P1,1,triclinic,-153.0067,-1.8439,-0.03,3D,,True,0.0,,-0.03,-0.0295
35407,Eu1O14Ta2Tb3Y2,1797c84e8d,Tb3EuY2Ta2O14,"['O', 'Y', 'Eu', 'Tb', 'Ta']",22,302.9978,7.6311,2,C2,5,monoclinic,-213.2105,-3.7771,-0.0172,3D,0.1319,True,0.0,,-0.0172,-0.0062
35475,Br12Cs1In4Rb3,17a319c479,CsRb3(InBr3)4,"['Br', 'Rb', 'In', 'Cs']",20,803.1576,3.7369,3,P3,143,trigonal,-65.4257,-1.5469,-0.0145,intercalated ion,2.3568,True,0.0,,-0.0145,-0.003
35488,F28Rh1Tb4Zr3,17a4ddf555,Tb4Zr3RhF28,"['F', 'Zr', 'Rh', 'Tb']",36,562.8969,4.5555,1,P1,1,triclinic,-246.3919,-3.9257,-0.011,3D,0.1069,False,0.0,,-0.011,-0.0089
35491,Ba1F12Sb1V1,17a54ab4bc,BaVSbF12,"['F', 'V', 'Sb', 'Ba']",15,261.5007,3.4164,1,P1,1,triclinic,-84.0684,-3.0666,-0.0307,intercalated ion,3.4021,True,0.0,,-0.0307,-0.0269
35516,Nb3O24P6Tm1,17a9f7b4f0,TmNb3(PO4)6,"['O', 'P', 'Nb', 'Tm']",34,520.8127,3.2441,1,P1,1,triclinic,-287.4831,-2.9845,-0.0168,3D,2.7997,True,0.0,,-0.0168,-0.0168
35525,Ce7O20Pr4,17ab97f1f5,Ce7Pr4O20,"['O', 'Ce', 'Pr']",31,468.6714,6.6058,1,P1,1,triclinic,-279.8593,-3.8789,-0.0121,3D,,True,0.0,,-0.0121,-0.0121
35527,O12Pt2Te2Zn2,17abc873d4,ZnTePtO6,"['O', 'Zn', 'Te', 'Pt']",18,206.8306,7.773,4mm,P4_2nm,102,tetragonal,-104.6753,-1.3529,-0.0163,3D,0.3257,True,-0.0,,-0.0163,-0.0088
35572,Bi1Ga2O12Pr5,17b2c34b6f,Pr5Ga2BiO12,"['O', 'Ga', 'Pr', 'Bi']",20,311.4844,6.6369,1,P1,1,triclinic,-156.3835,-3.1579,-0.0029,3D,3.5173,True,0.0,,-0.0029,-0.0029
35619,Ho2O14Sm2Ta2Y2,17bb2c8fe7,SmYHoTaO7,"['O', 'Y', 'Sm', 'Ho', 'Ta']",22,303.1681,7.6369,2,P2_1,4,monoclinic,-209.1126,-3.845,-0.0063,3D,,True,0.0,,-0.0063,-0.0063
35653,Ba3Na1O12,17bf55a7c2,Ba3NaO12,"['O', 'Na', 'Ba']",16,243.9377,4.2679,1,P1,1,triclinic,-89.8883,-1.4643,-0.0688,intercalated ion,,True,0.0,,-0.0688,-0.0348
35720,O2P1Si1Zr6,17caebdb44,Zr6SiPO2,"['O', 'Si', 'P', 'Zr']",10,165.0447,6.4231,mm2,Amm2,38,orthorhombic,-89.3662,-1.7345,-0.0196,3D,0.009,True,-0.0,,-0.0196,-0.0186
35724,Br12Ga1La12Os3,17cb1f5e6d,La12Ga(OsBr4)3,"['Ga', 'Br', 'La', 'Os']",28,943.7023,5.7471,32,R32,155,trigonal,-160.0134,-1.5867,-0.0869,3D,,True,0.0,,-0.0869,-0.0837
35751,Gd4La4O24Te4,17ced38110,LaGdTeO6,"['O', 'Te', 'La', 'Gd']",36,533.0721,6.4762,222,P2_12_12_1,19,orthorhombic,-315.3854,-3.0004,-0.0115,3D,2.8915,True,0.0,,-0.0115,-0.0086
35773,As2Cs2O26Ta8,17d2c4174c,CsTa4AsO13,"['O', 'As', 'Cs', 'Ta']",38,571.5108,6.6223,mm2,Cmc2_1,36,orthorhombic,-348.4636,-2.9959,-0.0183,intercalated ion,2.7295,False,0.0,,-0.0183,-0.0062
35803,Br8O16Sr8Te6,17d7f520fe,Sr4Te3(BrO2)4,"['O', 'Br', 'Sr', 'Te']",38,780.7821,5.023,2,C2,5,monoclinic,-212.6896,-2.3171,-0.022,intercalated ion,,True,-0.0,,-0.022,-0.0166
35821,Ho5O16Rb17,17da315d8b,Rb17Ho5O16,"['O', 'Rb', 'Ho']",38,945.465,4.4498,m,Cm,8,monoclinic,-201.4088,-2.1753,-0.0296,intercalated ion,inf,True,-0.0,,-0.0296,-0.0293
35855,Cl1P3Sm3Y1,17e1facfb7,Sm3YP3Cl,"['P', 'Cl', 'Y', 'Sm']",8,186.9565,5.9363,m,Cm,8,monoclinic,-52.1411,-1.6788,-0.0369,3D,,True,0.0,,-0.0369,-0.0031