Unnamed: 0,Composition,MaterialId,Reduced Formula,Elements,NSites,Volume,Density,Point Group,Space Group,Space Group Number,Crystal System,Corrected Energy,Formation Energy Per Atom,Decomposition Energy Per Atom,Dimensionality Cheon,Bandgap,Is Train,Decomposition Energy Per Atom All,Decomposition Energy Per Atom Relative,Decomposition Energy Per Atom MP,Decomposition Energy Per Atom MP OQMD
109242,Ba2Gd2O20Si6Tb2,48cd4a70a7,BaTbGdSi3O10,"['O', 'Si', 'Ba', 'Gd', 'Tb']",32,456.7776,5.0731,m,Pm,6,monoclinic,-287.5156,-3.5858,-0.0163,intercalated ion,3.5147,True,0.0,,-0.0163,-0.0043
109254,Ba3K1O12Pu4,48ce8552d2,KBa3Pu4O12,"['O', 'K', 'Ba', 'Pu']",20,333.7607,8.0553,mm2,Pmm2,25,orthorhombic,-190.3423,-3.3514,-0.0172,intercalated ion,0.0038,True,0.0,,-0.0172,-0.0171
109259,La5O12Pd1Ru1,48cf8f15c7,La5PdRuO12,"['O', 'Ru', 'Pd', 'La']",19,295.6557,6.1445,2,C2,5,monoclinic,-155.731,-3.0116,-0.0484,3D,0.0024,True,0.0,,-0.0484,-0.0395
109284,O12Sc2Tb2Y4,48d309e7f3,TbY2ScO6,"['O', 'Sc', 'Y', 'Tb']",20,290.155,5.4676,1,P1,1,triclinic,-186.7471,-3.9786,-0.0045,3D,,False,0.0,,-0.0045,-0.0045
109414,Li2O30P10Pb1Sn3,48e969e6ae,Li2Sn3P10PbO30,"['Li', 'O', 'P', 'Sn', 'Pb']",46,679.8125,3.3389,1,P1,1,triclinic,-337.7447,-2.5133,-0.0008,intercalated ion,,True,0.0,,-0.0008,-0.0007
109445,Cl16In5Tl3,48edaec0a1,Tl3In5Cl16,"['Cl', 'In', 'Tl']",24,860.7184,3.3848,2,P2,3,monoclinic,-86.0152,-1.4831,-0.076,,,,0.0,,-0.076,-0.0156
109460,F20N1Pa3,48f051f53c,Pa3NF20,"['N', 'F', 'Pa']",24,419.1593,4.3066,m,Cm,8,monoclinic,-153.6145,-3.271,-3.1203,0D,,True,0.0,,-3.1203,-1.3276
109502,Eu1F10Ho2Sr1,48f5f68a91,SrEuHo2F10,"['F', 'Sr', 'Eu', 'Ho']",14,196.9438,6.4032,2,C2,5,monoclinic,-101.0376,-4.3412,-0.01,intercalated ion,0.8939,True,0.0,,-0.01,-0.0084
109540,As1O1Si5Ti10,48fc5aadbf,Ti10Si5AsO,"['O', 'Si', 'Ti', 'As']",17,246.4495,4.784,m,Cm,8,monoclinic,-134.0499,-1.0801,-0.0559,3D,0.0124,True,0.0,,-0.0559,-0.0557
109571,Br1N12P6Zn3,4902091b78,Zn3P6BrN12,"['N', 'P', 'Zn', 'Br']",22,289.4172,3.615,3m,R3m,160,trigonal,-151.048,-0.5961,-0.0206,3D,0.0045,True,0.0,,-0.0206,-0.0191
109574,Cl6Pr11Si14Tb1,490331160c,TbPr11(Si7Cl3)2,"['Si', 'Cl', 'Pr', 'Tb']",32,754.788,5.0926,mm2,Pmm2,25,orthorhombic,-183.4433,-1.2242,-0.0569,3D,,True,0.0,,-0.0569,-0.0325
109645,Mo1O12Sm5Tc1,4911dffdcc,Sm5TcMoO12,"['O', 'Mo', 'Tc', 'Sm']",19,272.5355,6.9321,2,C2,5,monoclinic,-166.2219,-3.2656,-0.0177,3D,0.821,True,0.0,,-0.0177,-0.0177
109687,F28Pt4Tb1Y3,49199658a1,TbY3Pt4F28,"['F', 'Y', 'Tb', 'Pt']",36,528.2009,5.4637,1,P1,1,triclinic,-206.5781,-2.9094,-0.0007,3D,2.3469,False,0.0,,-0.0007,-0.0007
109694,Br12Gd1S2Sm7,491a9c536e,Sm7Gd(SBr6)2,"['S', 'Br', 'Sm', 'Gd']",22,740.3565,5.0078,m,Pm,6,monoclinic,-121.9462,-2.132,-0.044,3D,,True,0.0,,-0.044,-0.011
109731,Be4Ge2O14Tb4,49215feb3e,Tb2Be2GeO7,"['Be', 'O', 'Ge', 'Tb']",24,269.5506,6.4131,-42m,P-42_1m,113,tetragonal,-190.6174,-3.2752,-0.0102,intercalated ion,4.4778,True,0.0,,-0.0102,-0.0
109768,Cl24Li8Tc1Zr3,4929c2e5f6,Li8Zr3TcCl24,"['Li', 'Cl', 'Zr', 'Tc']",36,937.9282,2.2627,32,P312,149,trigonal,-170.2929,-2.073,-0.0173,intercalated ion,,True,0.0,,-0.0173,-0.0119
109779,Nb1O24P6Ta1Zr2,492b3e1440,Zr2TaNb(PO4)6,"['O', 'P', 'Zr', 'Nb', 'Ta']",34,519.9547,3.2771,1,P1,1,triclinic,-295.2929,-3.0885,-0.0167,intercalated ion,3.1215,True,0.0,,-0.0167,-0.0038
109826,As6Hf8Li4O48P6,493213114e,Li2Hf4As3(PO8)3,"['Li', 'O', 'P', 'As', 'Hf']",72,1047.4735,4.5324,m,Pc,7,monoclinic,-595.047,-2.9141,-0.0342,intercalated ion,,True,0.0,,-0.0342,-0.0244
109842,In1O22Sr4Tl1V6,49356bfce1,Sr4TlV6InO22,"['O', 'V', 'Sr', 'In', 'Tl']",34,499.8786,4.4092,1,P1,1,triclinic,-263.83,-2.6059,-0.0104,intercalated ion,,True,0.0,,-0.0104,-0.0057
109866,Cl18K1Lu1Nb6,4937d859a8,KLu(NbCl3)6,"['Cl', 'K', 'Nb', 'Lu']",26,659.0856,3.5516,3,R3,146,trigonal,-149.0175,-1.904,-0.0118,intercalated ion,1.0552,True,0.0,,-0.0118,-0.0009
109911,Ho1Nb7O12,493f2a8cb8,HoNb7O12,"['O', 'Nb', 'Ho']",20,285.8464,5.8514,3,R3,146,trigonal,-191.8387,-2.8586,-0.0014,3D,,False,0.0,,-0.0014,-0.0011
109927,F34Ir1Se1,4941f1d6f4,IrSeF34,"['F', 'Se', 'Ir']",36,704.124,2.1629,1,P1,1,triclinic,-113.8037,-1.0133,-0.3701,0D,,True,0.0,,-0.3701,-0.2737
110031,O24S6Sc1Tl3,4954698746,ScTl3(SO4)6,"['O', 'S', 'Sc', 'Tl']",34,515.3667,3.9776,3,R3,146,trigonal,-220.2264,-1.86,-0.0593,3D,,True,0.0,,-0.0593,-0.0587
110033,O24P8Rb2Tl2,495485d87b,RbTl(PO3)4,"['O', 'P', 'Rb', 'Tl']",36,568.5792,3.5381,2,P2_1,4,monoclinic,-256.2889,-2.4319,-0.052,intercalated ion,,False,0.0,,-0.052,-0.0511
110058,F30Np6Pr1Tm1,495731c8d2,PrTmNp6F30,"['F', 'Pr', 'Tm', 'Np']",38,617.3778,6.1911,2,C2,5,monoclinic,-295.3721,-3.9759,-0.0405,3D,,True,0.0,,-0.0405,-0.0007
110068,Br1Mg2N12P6Sb1,49593928e6,Mg2SbP6BrN12,"['N', 'Mg', 'P', 'Br', 'Sb']",22,303.3698,3.3072,m,Cm,8,monoclinic,-158.0439,-0.7527,-0.0652,3D,3.3385,True,0.0,,-0.0652,-0.0282
110160,Nb4O16Rb4Sr4,4965654c4a,RbSrNbO4,"['O', 'Rb', 'Sr', 'Nb']",28,507.676,4.3174,222,P2_12_12_1,19,orthorhombic,-213.7191,-2.9809,-0.0733,intercalated ion,4.3302,True,-0.0,,-0.0733,-0.0039
110187,F20Ru1Sb2V1,496a16e24d,VSb2RuF20,"['F', 'V', 'Ru', 'Sb']",24,407.9459,3.1567,1,P1,1,triclinic,-124.873,-2.5011,-0.0068,1D,0.9375,False,-0.0,,-0.0068,-0.0057
110280,F28Gd3Hf1Sm1Zr3,4979a1fae9,SmGd3HfZr3F28,"['F', 'Zr', 'Sm', 'Gd', 'Hf']",36,587.0353,4.5435,1,P1,1,triclinic,-288.5263,-4.2349,-0.0049,3D,,True,0.0,,-0.0049,-0.0018
110286,Ag2Li2O14P4Zn2,497a148580,LiZnAgP2O7,"['Li', 'O', 'P', 'Zn', 'Ag']",24,316.2942,3.7187,222,C222_1,20,orthorhombic,-158.4961,-2.3154,-0.0016,intercalated ion,,False,-0.0,,-0.0016,-0.0015
110321,As2Ca4O20Si2V4,4980b0d57e,Ca2V2SiAsO10,"['O', 'Si', 'Ca', 'V', 'As']",32,392.4351,3.7663,1,P1,1,triclinic,-253.8098,-2.8226,-0.0088,intercalated ion,1.2675,True,0.0,,-0.0088,-0.0088
110337,Br16Ge1Sc12Tc2,498346d1b7,Sc12Tc2GeBr16,"['Sc', 'Ge', 'Br', 'Tc']",31,973.6596,3.5586,1,P1,1,triclinic,-177.7735,-1.6209,-0.0947,intercalated ion,,True,-0.0,,-0.0947,-0.0118
110368,Li2O24Rh2Sb8,498712f77d,LiSb4RhO12,"['Li', 'O', 'Rh', 'Sb']",36,417.9126,6.2691,mm2,Pmn2_1,31,orthorhombic,-236.3516,-1.8338,-0.0048,intercalated ion,,True,0.0,,-0.0048,-0.0037
110397,Br6Sr1Zr1,498cc7342a,SrZrBr6,"['Br', 'Sr', 'Zr']",8,330.1198,3.3112,3,R3,146,trigonal,-36.7478,-2.0861,-0.0261,intercalated ion,,True,0.0,,-0.0261,-0.0021
110400,Cu2F12Li2Rh2,498da3e579,LiCuRhF6,"['Li', 'F', 'Cu', 'Rh']",18,211.1814,4.5194,4mm,P4_2nm,102,tetragonal,-88.3613,-2.1488,-0.0244,intercalated ion,0.0006,True,0.0,,-0.0244,-0.0091
110404,F20N2Ru1Ta1,498def76d1,TaRu(NF10)2,"['N', 'F', 'Ru', 'Ta']",24,366.5955,3.1254,1,P1,1,triclinic,-119.7176,-1.8201,-0.2867,0D,,True,0.0,,-0.2867,-0.1023
110415,Eu2Lu2O18Se6,498fcc9a8e,EuLu(SeO3)3,"['O', 'Se', 'Eu', 'Lu']",28,445.022,5.2822,1,P1,1,triclinic,-201.6971,-2.2154,-0.131,3D,,True,0.0,,-0.131,-0.1249
110437,Cs3O8Os2,4992abfc6e,Cs3(OsO4)2,"['O', 'Cs', 'Os']",13,298.4823,5.0468,2,C2,5,monoclinic,-87.869,-1.7803,-0.2423,intercalated ion,0.0021,True,0.0,,-0.2423,-0.0489
110450,Mo2O26P6U2,499586c3be,UMoP3O13,"['O', 'P', 'Mo', 'U']",36,584.9932,3.6043,1,P1,1,triclinic,-303.8771,-2.7354,-0.0231,3D,,True,0.0,,-0.0231,-0.0227
110459,Au2Ba1F14Sr1,4996ce869e,BaSr(AuF7)2,"['F', 'Sr', 'Ba', 'Au']",18,310.3239,4.7349,1,P1,1,triclinic,-77.4449,-2.2516,-0.055,intercalated ion,,True,0.0,,-0.055,-0.0366
110470,Gd4O12Ta1Y2,4999cdb5da,Gd4Y2TaO12,"['O', 'Y', 'Gd', 'Ta']",19,269.2348,7.2763,1,P1,1,triclinic,-212.2312,-3.7769,-0.0103,3D,0.0037,True,0.0,,-0.0103,-0.0096
110483,Bi2Lu5O14Y1,499cb27ece,YLu5(BiO7)2,"['O', 'Y', 'Lu', 'Bi']",22,302.3939,8.8174,1,P1,1,triclinic,-177.192,-3.2304,-0.0372,3D,,True,0.0,,-0.0372,-0.0065
110485,Gd1Li12O48Pr11Te8,499ce92eeb,Li12Pr11Gd(TeO6)8,"['Li', 'O', 'Te', 'Pr', 'Gd']",80,1033.4941,5.7509,222,F222,22,orthorhombic,-569.8469,-2.7203,-0.0439,intercalated ion,,True,0.0,,-0.0439,-0.0368
110511,B4Cl12Tb4Y8,49a1e1e58c,TbY2BCl3,"['B', 'Cl', 'Y', 'Tb']",28,656.319,4.5937,1,P1,1,triclinic,-168.9666,-1.7785,-0.0001,3D,0.0056,True,0.0,,-0.0001,-0.0001
110512,Br18Cs2Nb1Sr1Ta5,49a2198122,Cs2SrTa5NbBr18,"['Br', 'Sr', 'Nb', 'Cs', 'Ta']",27,847.9907,5.4621,1,P1,1,triclinic,-144.106,-1.5471,-0.0188,intercalated ion,,True,0.0,,-0.0188,-0.0188
110563,Cd1F23K8,49ac0919b7,K8CdF23,"['F', 'K', 'Cd']",32,548.7822,2.6088,1,P1,1,triclinic,-116.0991,-1.9478,-0.0887,intercalated ion,,True,0.0,,-0.0887,-0.0025
110586,Cl6Ge1Zr1,49afd6c183,ZrGeCl6,"['Cl', 'Ge', 'Zr']",8,250.5633,2.4957,32,P312,149,trigonal,-39.2614,-1.8749,-0.0138,intercalated ion,2.8528,True,0.0,,-0.0203,-0.0183
110591,Br6La9Pr3Si14,49b10ce264,La9Pr3(Si7Br3)2,"['Si', 'Br', 'La', 'Pr']",32,829.5514,5.0954,m,Pm,6,monoclinic,-182.3142,-1.1804,-0.0259,3D,0.004,True,0.0,,-0.0259,-0.0159
110636,F28Ho1Pd4Tm3,49bae8dad4,HoTm3Pd4F28,"['F', 'Pd', 'Ho', 'Tm']",36,503.0413,5.3785,1,P1,1,triclinic,-195.4776,-2.8674,-0.1643,3D,1.6504,True,0.0,,-0.1643,-0.0386
110686,Cl18Hf1Na6U1Zr1,49c3ac7684,Na6HfZrUCl18,"['Na', 'Cl', 'Zr', 'Hf', 'U']",27,757.9003,2.8128,3m,P3m1,156,trigonal,-130.8264,-2.2156,-0.0192,intercalated ion,0.2354,True,-0.0,,-0.0192,-0.0102
110759,Br12O4Os1Tc3,49cd3b561f,Tc3Os(Br3O)4,"['O', 'Br', 'Tc', 'Os']",20,532.7431,4.6975,m,Cm,8,monoclinic,-102.7956,-1.0526,-0.1235,1D,0.0023,True,0.0,,-0.1235,-0.0491
110832,Br12Rb3Tl1U2,49d98e0382,Rb3U2TlBr12,"['Br', 'Rb', 'Tl', 'U']",18,689.0133,4.5687,1,P1,1,triclinic,-80.7295,-1.8445,-0.0174,intercalated ion,,True,0.0,,-0.0174,-0.0174
110857,Br17Cs2Os2Sm8Y2,49dd7a31bf,Cs2Sm8Y2Os2Br17,"['Br', 'Y', 'Cs', 'Sm', 'Os']",31,1095.0515,5.1335,1,P1,1,triclinic,-160.0291,-1.8475,-0.0407,intercalated ion,,True,0.0,,-0.0407,-0.0407
110881,Na2O32P10V4,49e0a0bdbe,NaV2P5O16,"['O', 'Na', 'P', 'V']",48,653.3173,2.7233,m,Pc,7,monoclinic,-380.1471,-2.681,-0.0001,intercalated ion,2.1635,True,0.0,,-0.0001,-0.0001
110896,F28Hf3Pt1Tm2Y2,49e2b884f7,Y2Tm2Hf3PtF28,"['F', 'Y', 'Tm', 'Hf', 'Pt']",36,541.6401,5.4515,1,P1,1,triclinic,-254.3295,-3.9717,-0.004,3D,,True,0.0,,-0.004,-0.0027
110954,F37Rb1,49ed5d7349,RbF37,"['F', 'Rb']",38,716.196,1.828,1,P1,1,triclinic,-93.9042,-0.5842,-0.3931,intercalated ion,,True,0.0,,-0.3931,-0.3921
110977,Bi5O18Pb1Ru3,49f1819ea9,Bi5Ru3PbO18,"['O', 'Ru', 'Pb', 'Bi']",27,392.1206,7.8059,2,C2,5,monoclinic,-181.0619,-1.519,-0.0389,3D,0.0024,True,0.0,,-0.0389,-0.0389
110989,Br18Hf1P2Zr1,49f43ab283,HfZr(PBr9)2,"['P', 'Br', 'Zr', 'Hf']",22,895.976,3.2803,1,P1,1,triclinic,-86.6589,-1.2665,-0.0195,0D,1.6977,True,0.0,,-0.0195,-0.0024
111003,Br12Ge2Pr12Si2,49f7a73b59,Pr6SiGeBr6,"['Si', 'Ge', 'Br', 'Pr']",28,905.0052,5.2315,222,F222,22,orthorhombic,-144.4345,-1.6901,-0.1081,3D,,True,0.0,,-0.1081,-0.0845
111013,B2Br12Ho1Lu7,49f9219891,HoLu7(BBr6)2,"['B', 'Br', 'Ho', 'Lu']",22,673.4039,5.8446,m,Pm,6,monoclinic,-108.8165,-1.7993,-0.089,3D,0.0111,True,0.0,,-0.089,-0.0338
111019,Ho1In2O16Sb4Tl1,49f9e511ef,HoTlIn2(SbO4)4,"['O', 'In', 'Sb', 'Ho', 'Tl']",24,304.9413,7.3077,1,P1,1,triclinic,-158.1697,-2.085,-0.0198,3D,0.9498,True,0.0,,-0.0198,-0.0102
111043,Ba6O14Tc3Y1,49fe025203,Ba6YTc3O14,"['O', 'Y', 'Tc', 'Ba']",24,377.6606,6.2914,mm2,Amm2,38,orthorhombic,-184.5436,-2.7588,-0.0756,intercalated ion,0.0024,True,0.0,,-0.0756,-0.0092
111046,Cl6Gd1O2Sm3,49fe7bc2a2,Sm3Gd(Cl3O)2,"['O', 'Cl', 'Sm', 'Gd']",12,296.8671,4.7716,m,Cm,8,monoclinic,-84.9239,-2.9754,-0.1114,2D,0.4225,True,0.0,,-0.1114,-0.0225
111058,Br12La7Si4Sm5,4a00260467,La7Sm5(SiBr3)4,"['Si', 'Br', 'La', 'Sm']",28,896.1561,5.1796,2,C2,5,monoclinic,-147.0082,-1.6971,-0.0385,3D,0.0061,True,0.0,,-0.0385,-0.0288
111122,Ag2C4Na4O12,4a0aad74df,Na2Ag(CO3)2,"['C', 'O', 'Na', 'Ag']",22,357.5287,2.5439,mm2,Fdd2,43,orthorhombic,-144.9247,-1.7122,-0.0144,intercalated ion,0.216,True,0.0,,-0.0144,-0.0143
111138,Cl7Pm1,4a0bffb235,PmCl7,"['Cl', 'Pm']",8,301.5092,2.1654,1,P1,1,triclinic,-30.882,-1.649,-0.3176,intercalated molecule,2.6351,True,0.0,,-0.3176,-0.2785
111143,Cl30Ta5U1,4a0cb02890,UTa5Cl30,"['Cl', 'Ta', 'U']",36,1271.9875,2.8803,2,C2,5,monoclinic,-194.5648,-1.9036,-0.0009,0D,0.6483,True,0.0,,-0.0009,-0.0009
111179,Au4O12Pr1Sm3,4a123a1d5a,PrSm3(AuO3)4,"['O', 'Pr', 'Sm', 'Au']",20,293.0062,8.908,m,Pm,6,monoclinic,-136.2881,-2.244,-0.0633,3D,,True,0.0,,-0.0633,-0.0268
111180,Ho2O24Pr6W4,4a126ff63b,Pr3Ho(WO6)2,"['O', 'Pr', 'Ho', 'W']",36,523.0392,7.285,2,P2_1,4,monoclinic,-324.9148,-3.2356,-0.0159,3D,3.669,True,-0.0,,-0.0159,-0.0158
111213,Br2Ge1Sm1Tb1,4a191f29a8,TbSmGeBr2,"['Ge', 'Br', 'Sm', 'Tb']",5,163.4198,5.5047,3m,P3m1,156,trigonal,-25.4937,-1.6488,-0.0372,2D,0.153,True,0.0,,-0.0372,-0.0019
111307,Cl6La5Ru2Tb1,4a2b23d96a,La5Tb(RuCl3)2,"['Cl', 'Ru', 'La', 'Tb']",14,444.845,4.7344,m,Pm,6,monoclinic,-84.2637,-1.8078,-0.0432,3D,,True,0.0,,-0.0432,-0.0432
111340,La5O12Pd1Sb1,4a2f8426ff,La5SbPdO12,"['O', 'Pd', 'Sb', 'La']",19,300.1688,6.1665,2,C2,5,monoclinic,-152.8988,-3.1334,-0.0466,3D,1.0382,True,0.0,,-0.0466,-0.0356
111397,Br24In6Tl6,4a38420855,TlInBr4,"['Br', 'In', 'Tl']",36,1387.4764,4.5872,3m,R3c,161,trigonal,-114.1701,-1.2279,-0.0164,intercalated ion,,False,0.0,,-0.0164,-0.0158
111419,Cu1Ir3O12Ru2,4a3c2aaaa3,CuIr3(RuO6)2,"['O', 'Cu', 'Ru', 'Ir']",18,195.086,8.804,mm2,Cmm2,35,orthorhombic,-131.7461,-1.2893,-0.0248,3D,0.0008,True,0.0,,-0.0248,-0.0248
111427,Cs2Ga2O16Pt6,4a3dc9ce19,CsGaPt3O8,"['O', 'Ga', 'Cs', 'Pt']",26,337.8695,9.0026,m,Cm,8,monoclinic,-157.9892,-1.3288,-0.0402,inf,,False,0.0,,-0.0402,-0.0387
111466,B1Br20Lu5Rb8Tm1,4a44901ec7,Rb8TmLu5BBr20,"['B', 'Br', 'Rb', 'Tm', 'Lu']",35,1298.114,4.2679,4mm,I4mm,107,tetragonal,-145.6596,-2.0376,-0.0656,intercalated ion,inf,True,0.0,,-0.0656,-0.0307
111470,B1Br12Ge3La12,4a4554fb2c,La12Ge3BBr12,"['B', 'Ge', 'Br', 'La']",28,921.3463,5.1446,32,R32,155,trigonal,-147.3206,-1.7106,-0.0782,3D,0.0186,True,0.0,,-0.0782,-0.0486
111513,F28Ho3Pt1Tc3Y1,4a4d39a22e,YHo3Tc3PtF28,"['F', 'Y', 'Tc', 'Ho', 'Pt']",36,528.8087,5.0391,1,P1,1,triclinic,-228.017,-3.2536,-0.0551,3D,1.5294,True,-0.0,,-0.0551,-0.0522
111521,B2Br34Cs7In1Zr12,4a4e87e3cd,Cs7Zr12In(BBr17)2,"['B', 'Br', 'Zr', 'In', 'Cs']",56,1973.2128,4.1052,1,P1,1,triclinic,-283.7574,-1.842,-0.0076,intercalated ion,,True,0.0,,-0.0076,-0.0076
111541,Al1Ba4F20Ga3,4a50b85231,Ba4AlGa3F20,"['F', 'Al', 'Ga', 'Ba']",28,414.8736,4.6646,1,P1,1,triclinic,-161.0369,-3.6536,-0.0003,intercalated ion,5.8155,True,0.0,,-0.0003,-0.0003
111551,Cl2Sm9Sn6Tb1,4a51d19c8e,TbSm9(Sn3Cl)2,"['Cl', 'Sn', 'Sm', 'Tb']",18,499.1881,7.6354,32,P312,149,trigonal,-93.661,-1.0447,-0.0283,3D,,True,0.0,,-0.0283,-0.0248
111597,F1H1O7Zn1,4a5954a2ed,ZnHO7F,"['H', 'O', 'F', 'Zn']",10,172.2767,1.9028,1,P1,1,triclinic,-52.0315,-1.0832,-0.3208,intercalated molecule,0.8314,True,0.0,,-0.3208,-0.3109
111600,O18Pb3Ta5W1,4a59af2c99,Ta5Pb3WO18,"['O', 'Ta', 'W', 'Pb']",27,385.956,8.5969,1,P1,1,triclinic,-249.3304,-2.8475,-0.0048,3D,2.512,True,0.0,,-0.0048,-0.0026
111601,F28Mo3Re1Y4,4a59c6b49a,Y4ReMo3F28,"['F', 'Y', 'Mo', 'Re']",36,554.2717,4.0792,1,P1,1,triclinic,-248.8334,-3.4574,-0.0193,3D,,True,0.0,,-0.0193,-0.0052
111612,Ba3Ce2Lu2O9,4a5b92b04f,Ba3Ce2Lu2O9,"['O', 'Ba', 'Ce', 'Lu']",16,280.2472,7.0282,32,R32,155,trigonal,-128.0525,-3.5535,-0.0174,intercalated ion,,True,0.0,,-0.0174,-0.0049
111646,Cl2Ho1O6Ti2Y1,4a61891025,YHoTi2(ClO3)2,"['O', 'Cl', 'Ti', 'Y', 'Ho']",12,183.5343,4.6728,m,Cm,8,monoclinic,-102.6169,-3.5327,-0.0252,3D,3.189,False,0.0,,-0.0252,-0.0002
111688,Cu4Ga7O4Ti12Zn1,4a6af1b1fa,Ti12ZnGa7(CuO)4,"['O', 'Ti', 'Cu', 'Zn', 'Ga']",28,375.0642,6.4022,3m,R3m,160,trigonal,-185.2697,-1.1385,-0.0478,3D,0.0002,True,0.0,,-0.0478,-0.0438
111689,Al6Ca1O14Pr2Sr1,4a6ba468f1,SrCaPr2Al6O14,"['O', 'Al', 'Ca', 'Sr', 'Pr']",24,324.9411,4.0647,1,P1,1,triclinic,-190.2543,-3.5522,-0.0104,intercalated ion,4.2741,True,0.0,,-0.0104,-0.0041
111824,Br6Os1Te13,4a83849ee9,Te13OsBr6,"['Br', 'Te', 'Os']",20,691.6757,5.59,32,R32,155,trigonal,-73.6258,-0.5857,-0.2638,1D,0.585,True,0.0,,-0.2638,-0.2198
111856,Ba4Cd8K1O44Rb3V12,4a88c045cf,KRb3Ba4V12Cd8O44,"['O', 'K', 'V', 'Rb', 'Cd', 'Ba']",72,1169.6571,4.3433,1,P1,1,triclinic,-516.5372,-2.371,-0.0099,intercalated ion,,True,-0.0,,-0.0099,-0.0097
111857,As1Ba2F14V1,4a88c1cb78,Ba2VAsF14,"['F', 'V', 'As', 'Ba']",18,276.8542,3.9976,1,P1,1,triclinic,-101.9858,-3.2025,-0.0622,intercalated ion,1.8181,True,0.0,,-0.0622,-0.0605
111894,Ce1F12Pr3,4a9056df0f,CePr3F12,"['F', 'Ce', 'Pr']",16,226.5364,5.7968,m,Pm,6,monoclinic,-113.7765,-4.4102,-0.0242,3D,0.1671,True,0.0,,-0.0242,-0.0173
111912,Bi1F28Ir4Pr3,4a92ec0082,Pr3BiIr4F28,"['F', 'Pr', 'Ir', 'Bi']",36,573.8924,5.5917,1,P1,1,triclinic,-207.3034,-2.7832,-0.0516,3D,0.0015,True,0.0,,-0.0516,-0.0516
111952,F20K8Tb1Tl3,4a9af69b6f,K8TbTl3F20,"['F', 'K', 'Tb', 'Tl']",32,553.7788,4.3924,m,Pm,6,monoclinic,-152.5048,-2.9273,-0.0087,intercalated ion,,True,0.0,,-0.0087,-0.0021
111961,F12Hg1Ru1Sb1,4a9cd2ca8c,HgSbRuF12,"['F', 'Ru', 'Sb', 'Hg']",15,264.4164,4.0908,1,P1,1,triclinic,-70.1766,-2.2355,-0.0558,intercalated ion,,True,0.0,,-0.0558,-0.0549
112013,Be1Br2Ga1Y2,4aa4e87fb2,Y2BeGaBr2,"['Be', 'Ga', 'Br', 'Y']",6,155.0743,4.4583,3m,P3m1,156,trigonal,-30.8191,-1.3075,-0.0131,intercalated ion,0.0117,True,0.0,,-0.0131,-0.0121
112037,C4Cl1Pr4Se1,4aaa2a9ad4,Pr4C4SeCl,"['C', 'Cl', 'Se', 'Pr']",10,210.1675,5.7368,2,C2,5,monoclinic,-70.9946,-0.9619,-0.0325,3D,0.0167,True,0.0,,-0.0325,-0.0267
112071,Br6Ho1Pr11Si14,4aaef2ca85,Pr11Ho(Si7Br3)2,"['Si', 'Br', 'Pr', 'Ho']",32,802.3868,5.3549,mm2,Pmm2,25,orthorhombic,-178.8694,-1.1225,-0.0669,3D,0.0034,False,0.0,,-0.0669,-0.0204
112078,Cl12Hf1Na4U1,4ab04f88c8,Na4HfUCl12,"['Na', 'Cl', 'Hf', 'U']",18,513.4824,3.0202,32,P312,149,trigonal,-88.646,-2.2171,-0.0222,intercalated ion,,True,0.0,,-0.0222,-0.0097
112081,Ho5Mo2O14Pr1,4ab1a9f92f,PrHo5(MoO7)2,"['O', 'Mo', 'Pr', 'Ho']",22,298.7993,7.6771,2,C2,5,monoclinic,-193.7757,-3.4145,-0.0177,3D,1.5831,False,0.0,,-0.0177,-0.0093
112098,C1Cl5Gd1Pr3,4ab5255548,Pr3GdCCl5,"['C', 'Cl', 'Pr', 'Gd']",10,274.1213,4.6599,m,Cm,8,monoclinic,-66.841,-1.9953,-0.0315,3D,0.0016,True,0.0,,-0.0315,-0.0023
112150,La2O24Tb4W4Y2,4abda404fb,LaTb2Y(WO6)2,"['O', 'Y', 'La', 'Tb', 'W']",36,484.229,7.5809,2,P2,3,monoclinic,-330.8133,-3.3024,-0.0015,3D,3.6086,True,0.0,,-0.0015,-0.0014
112301,Li4O16U2V6,4ad6941e52,Li2UV3O8,"['Li', 'O', 'V', 'U']",28,322.0096,5.4944,3m,P31c,159,trigonal,-243.4209,-2.8404,-0.0262,intercalated ion,0.7018,True,-0.0,,-0.0262,-0.0226
112381,Br16Ru4Se8,4ae4aff0e1,Ru(SeBr2)2,"['Se', 'Br', 'Ru']",28,985.3601,3.9003,-4,I-4,82,tetragonal,-110.9999,-0.7051,-0.0535,0D,0.3051,False,-0.0,,-0.0535,-0.0043
112498,Cl2Pb6Pr5Tm5,4af9da5944,Pr5Tm5(Pb3Cl)2,"['Cl', 'Pr', 'Tm', 'Pb']",18,509.9784,9.3232,mm2,Amm2,38,orthorhombic,-88.4028,-0.897,-0.0438,3D,0.001,True,0.0,,-0.0438,-0.0404
112512,F28Ho1Pu3Tc4,4afb00926a,HoPu3Tc4F28,"['F', 'Tc', 'Ho', 'Pu']",36,557.4726,5.4239,1,P1,1,triclinic,-258.5101,-3.2267,-0.0973,3D,,False,0.0,,-0.0973,-0.0965
112589,Ba10F2O18Rh4,4b06f8cc33,Ba5Rh2O9F,"['O', 'F', 'Rh', 'Ba']",34,576.4457,6.0807,mm2,Cmc2_1,36,orthorhombic,-225.1633,-2.4597,-0.0355,intercalated ion,0.0024,True,0.0,,-0.0355,-0.0329
112597,Bi2La2O16Sb4,4b0870e59d,LaBi(SbO4)2,"['O', 'Sb', 'La', 'Bi']",24,360.9785,6.6186,m,Pc,7,monoclinic,-169.9212,-2.3577,-0.0113,3D,3.0847,True,0.0,,-0.0113,-0.0112
112600,B2Br12Lu1Tb7,4b090576f4,Tb7Lu(BBr6)2,"['B', 'Br', 'Tb', 'Lu']",22,720.608,5.2261,m,Pm,6,monoclinic,-110.1247,-1.8255,-0.016,3D,0.0028,False,0.0,,-0.016,-0.0089
112611,Ca2La4O12Pu1,4b0a616d2b,Ca2La4PuO12,"['O', 'Ca', 'La', 'Pu']",19,306.294,5.8105,1,P1,1,triclinic,-163.7555,-3.4925,-0.1797,intercalated ion,,True,0.0,,-0.1797,-0.0623
112615,O22Rh1Sr12Ta3,4b0ad8475a,Sr12Ta3RhO22,"['O', 'Sr', 'Rh', 'Ta']",38,604.9952,5.6244,1,P1,1,triclinic,-291.0375,-3.1308,-0.0061,intercalated ion,,True,0.0,,-0.0061,-0.0035
112667,B1F7Ge2,4b152ed82c,Ge2BF7,"['B', 'F', 'Ge']",10,169.5746,2.8308,1,P1,1,triclinic,-56.233,-2.6927,-0.0129,intercalated molecule,4.4212,True,0.0,,-0.0129,-0.0128
112726,F3Nb16O37,4b1d841d80,Nb16O37F3,"['O', 'F', 'Nb']",56,832.1942,4.2611,m,Cm,8,monoclinic,-522.5948,-3.0744,-0.0135,3D,,True,0.0,,-0.0135,-0.011
112806,Ag1Br16Ga4Li1Na2,4b2c4f6edc,Na2LiGa4AgBr16,"['Li', 'Na', 'Ga', 'Br', 'Ag']",24,848.7349,3.3615,1,P1,1,triclinic,-78.5561,-1.3694,-0.0055,intercalated ion,2.7603,True,0.0,,-0.0055,-0.0054