Unnamed: 0,Composition,MaterialId,Reduced Formula,Elements,NSites,Volume,Density,Point Group,Space Group,Space Group Number,Crystal System,Corrected Energy,Formation Energy Per Atom,Decomposition Energy Per Atom,Dimensionality Cheon,Bandgap,Is Train,Decomposition Energy Per Atom All,Decomposition Energy Per Atom Relative,Decomposition Energy Per Atom MP,Decomposition Energy Per Atom MP OQMD
24896,Ho11Li12O48Tb1W8,108d70e518,Li12TbHo11(WO6)8,"['Li', 'O', 'Tb', 'Ho', 'W']",80,932.4785,7.6487,222,F222,22,orthorhombic,-660.4974,-3.0173,-0.0086,intercalated ion,,True,0.0,,-0.0086,-0.0014
24897,Cl24Mo4W8,108d980a8a,Mo(WCl3)2,"['Cl', 'Mo', 'W']",36,1015.5469,4.4236,mm2,Aem2,39,orthorhombic,-235.186,-1.2159,-0.0116,2D,2.5544,True,0.0,,-0.0116,-0.0097
24926,Br12Ca1La2Pr4Ru1,10952a1972,CaLa2Pr4RuBr12,"['Ca', 'Br', 'Ru', 'La', 'Pr']",20,741.7253,4.3464,1,P1,1,triclinic,-100.6056,-2.0343,-0.0217,intercalated ion,,True,0.0,,-0.0217,-0.0188
24953,Eu1Ga8O14Sr1,109abc59bf,SrEu(Ga4O7)2,"['O', 'Ga', 'Sr', 'Eu']",24,352.1328,4.8164,2,C2,5,monoclinic,-165.4318,-2.4981,-0.0296,intercalated ion,0.0022,True,0.0,,-0.0296,-0.0207
25002,Cl12In3Lu2Rb3,10a54c1c48,Rb3Lu2(InCl4)3,"['Cl', 'Rb', 'In', 'Lu']",20,663.9266,3.4421,1,P1,1,triclinic,-85.3342,-2.1457,-0.0184,intercalated ion,,True,-0.0,,-0.0184,-0.008
25033,Ho3O14Ta2Tb2Y1,10aacb4ffd,Tb2YHo3Ta2O14,"['O', 'Y', 'Tb', 'Ho', 'Ta']",22,299.2357,8.2542,1,P1,1,triclinic,-207.5441,-3.867,-0.0031,3D,3.4736,True,0.0,,-0.0031,-0.003
25039,O12Pr5Rh1Zr1,10abc4381b,Pr5ZrRhO12,"['O', 'Zr', 'Rh', 'Pr']",19,294.6469,6.1466,2,C2,5,monoclinic,-162.0399,-3.3078,-0.0396,3D,0.1837,True,0.0,,-0.0396,-0.0372
25054,O20Ti4V8,10ae0cf76e,TiV2O5,"['O', 'Ti', 'V']",32,383.2434,3.9818,1,P1,1,triclinic,-296.1069,-2.903,-0.0051,3D,,True,0.0,,-0.0051,-0.003
25056,Ca5O12Pr1Ru1W1,10aea41325,Ca5PrRuWO12,"['O', 'Ca', 'Ru', 'Pr', 'W']",20,291.5965,4.6594,1,P1,1,triclinic,-155.436,-2.951,-0.0134,intercalated ion,0.9059,False,0.0,,-0.0134,-0.0134
25096,As2Cl26Pa2V2,10b532bdf2,PaVAsCl13,"['Cl', 'V', 'As', 'Pa']",32,1147.115,2.3676,mm2,Cmc2_1,36,orthorhombic,-150.5913,-1.7504,-0.0237,0D,0.5945,True,0.0,,-0.0237,-0.0137
25148,As4O14Sn1V1,10bf0d63fd,VSn(As2O7)2,"['O', 'V', 'As', 'Sn']",20,304.0524,3.7865,1,P1,1,triclinic,-137.3897,-1.8194,-0.0347,3D,1.7426,True,0.0,,-0.0347,-0.0347
25334,Cu2Ir2O12Rh2,10e1f3a804,CuIrRhO6,"['O', 'Cu', 'Rh', 'Ir']",18,191.7068,7.8765,4mm,P4_2nm,102,tetragonal,-120.1673,-1.1215,-0.0547,3D,0.0024,True,0.0,,-0.0547,-0.0357
25353,As2Br18Cs6P2,10e4d31cbd,Cs3AsPBr9,"['P', 'As', 'Br', 'Cs']",28,1047.0334,3.8816,6mm,P6_3mc,186,hexagonal,-93.8934,-1.3897,-0.0375,intercalated ion,2.3332,True,-0.0,,-0.0375,-0.0055
25360,B3C1Cl12Ho12,10e5a68188,Ho12B3CCl12,"['B', 'C', 'Cl', 'Ho']",28,627.7608,6.4782,32,R32,155,trigonal,-156.2364,-1.7786,-0.1242,3D,0.0047,True,0.0,,-0.1242,-0.0527
25372,Ac2Br3Cl1H2,10e7df230c,Ac2H2Br3Cl,"['H', 'Cl', 'Br', 'Ac']",8,239.8638,5.0618,3m,P3m1,156,trigonal,-37.7631,-1.997,-0.0358,2D,4.3539,True,0.0,,-0.0358,-0.0358
25430,Ga3Ir3O14Sn12,10f2cd8377,Ga3Sn12Ir3O14,"['O', 'Ga', 'Sn', 'Ir']",32,539.3598,7.4946,1,P1,1,triclinic,-203.1919,-1.5689,-0.0056,3D,1.3759,True,-0.0,,-0.0056,-0.0056
25467,As4Ge1O14Sn1,10facd7e54,SnGe(As2O7)2,"['O', 'Ge', 'As', 'Sn']",20,294.3189,4.0342,1,P1,1,triclinic,-131.3581,-1.7409,-0.0201,3D,2.2703,False,0.0,,-0.0201,-0.0167
25472,Mo1O12Pr5Ta1,10fc51ccd9,Pr5TaMoO12,"['O', 'Mo', 'Pr', 'Ta']",19,294.063,6.6262,2,C2,5,monoclinic,-172.2109,-3.4857,-0.0261,3D,1.8095,False,0.0,,-0.0261,-0.0218
25505,O18Os5Ru1Sr4,1103b70bd5,Sr4Os5RuO18,"['O', 'Sr', 'Ru', 'Os']",28,397.7059,7.0591,2,C2,5,monoclinic,-219.6768,-2.0873,-0.0983,intercalated ion,0.0006,True,0.0,,-0.0983,-0.0736
25529,Ac5O12Rh1Sn1,110708e005,Ac5SnRhO12,"['O', 'Rh', 'Sn', 'Ac']",19,316.2934,8.1302,2,C2,5,monoclinic,-149.9212,-3.0824,-0.0976,3D,,True,0.0,,-0.0976,-0.0972
25540,Al8As12O48Tl12,11081b08bb,Al2Tl3(AsO4)3,"['O', 'Al', 'As', 'Tl']",80,1413.7061,5.0925,mm2,Pna2_1,33,orthorhombic,-515.1965,-2.0435,-0.0037,intercalated ion,,True,0.0,,-0.0037,-0.0037
25623,F18Hg3Na6,1115663f53,Na2HgF6,"['F', 'Na', 'Hg']",27,437.1956,4.1084,32,P321,150,trigonal,-98.5057,-2.0464,-0.1714,intercalated ion,0.7478,True,0.0,,-0.1714,-0.0895
25640,In2O24Se8Tl2Zn2,111873adea,TlZnIn(SeO3)4,"['O', 'Zn', 'Se', 'In', 'Tl']",38,646.2606,4.5862,m,Pc,7,monoclinic,-212.8534,-1.405,-0.0003,2D,2.5254,True,-0.0,,-0.0003,-0.0002
25646,Br12La3Si2Sm5,1119426d86,La3Sm5(SiBr6)2,"['Si', 'Br', 'La', 'Sm']",22,836.0216,4.337,m,Pm,6,monoclinic,-111.459,-1.9347,-0.0542,3D,0.0024,True,0.0,,-0.0542,-0.04
25704,O18Os6Pr1Y1,1122687206,PrY(OsO3)6,"['O', 'Y', 'Pr', 'Os']",26,322.9863,8.5302,m,Pm,6,monoclinic,-217.7597,-1.9263,-0.0364,3D,0.004,True,0.0,,-0.0364,-0.0191
25718,Cl10Gd3Ir1Y3,112413ccd8,Gd3Y3IrCl10,"['Cl', 'Y', 'Gd', 'Ir']",17,533.5008,4.0003,1,P1,1,triclinic,-128.107,-2.2997,-0.0338,3D,,True,0.0,,-0.0338,-0.0212
25726,Br18Rb6Ti3V1,1125e118c2,Rb6Ti3VBr18,"['Ti', 'V', 'Br', 'Rb']",28,965.2873,3.691,3m,P3m1,156,trigonal,-118.3134,-1.7927,-0.0305,intercalated ion,0.0011,True,-0.0,,-0.0305,-0.0128
25753,Ir4La1O24Tb7,112a38c523,LaTb7(IrO6)4,"['O', 'La', 'Tb', 'Ir']",36,493.21,8.0946,1,P1,1,triclinic,-290.2115,-2.7425,-0.0918,3D,0.1243,False,0.0,,-0.0918,-0.0618
25829,B2Br12Tb5Y3,11383c6c2d,Tb5Y3(BBr6)2,"['B', 'Br', 'Y', 'Tb']",22,711.7197,4.7638,m,Pm,6,monoclinic,-115.9493,-1.8353,-0.0107,3D,,True,0.0,,-0.0107,-0.0107
25917,Ir3O24Sc1Sm8,11475cc58c,Sm8Sc(IrO8)3,"['O', 'Sc', 'Sm', 'Ir']",36,500.5285,7.3268,1,P1,1,triclinic,-290.2828,-2.8038,-0.0102,3D,,True,0.0,,-0.0102,-0.0064
25919,O24Os1P6Ta3,1147c4df36,Ta3P6OsO24,"['O', 'P', 'Ta', 'Os']",34,494.8874,4.3717,3,R3,146,trigonal,-292.782,-2.7868,-0.0235,3D,0.2109,False,0.0,,-0.0235,-0.0235
25980,Ca1O12Ru2Tb4,115428ffd3,CaTb4(RuO6)2,"['O', 'Ca', 'Ru', 'Tb']",19,259.0767,6.8575,m,Cm,8,monoclinic,-155.5677,-3.0053,-0.0133,intercalated ion,0.0068,False,0.0,,-0.0133,-0.0083
25995,Br2In6La8Lu1Tb1,1156f03a8c,La8TbLu(In3Br)2,"['Br', 'In', 'La', 'Tb', 'Lu']",18,559.1356,6.8124,32,P312,149,trigonal,-81.5614,-0.7297,-0.0092,3D,0.0016,True,0.0,,-0.0092,-0.0086
26013,Br6Li2O18V1,1158cfb0b6,Li2V(BrO3)6,"['Li', 'O', 'V', 'Br']",27,406.3927,3.4006,1,P1,1,triclinic,-133.1013,-0.7894,-0.0831,intercalated ion,1.4899,True,-0.0,,-0.0831,-0.0771
26017,Br18Cs6Ir1Sc3,11592423ce,Cs6Sc3IrBr18,"['Sc', 'Br', 'Cs', 'Ir']",28,1062.4003,4.0057,3m,P3m1,156,trigonal,-117.5538,-1.96,-0.0095,intercalated ion,1.9358,True,0.0,,-0.0095,-0.0048
26036,Cs2Ga1O50P12Si4Ti5,115c15c235,Cs2Ti5GaSi4(P6O25)2,"['O', 'Si', 'P', 'Ti', 'Ga', 'Cs']",74,1061.6337,2.9075,3,P3,143,trigonal,-597.7184,-2.9644,-0.0047,intercalated ion,,False,0.0,,-0.0047,-0.0043
26055,Cl18In1Nb6Tb1,115f8aa691,TbNb6InCl18,"['Cl', 'Nb', 'In', 'Tb']",26,667.6193,3.6546,3,R3,146,trigonal,-148.4892,-1.8162,-0.0091,intercalated ion,0.939,False,0.0,,-0.0091,-0.005
26097,F28Ho4Ru1Tc3,116693d320,Ho4Tc3RuF28,"['F', 'Tc', 'Ru', 'Ho']",36,527.0873,4.9989,1,P1,1,triclinic,-231.3061,-3.3083,-0.0794,3D,0.0993,False,0.0,,-0.0794,-0.078
26101,As2Eu1O2Rh2Sm1,1167c3795a,SmEuAs2(RhO)2,"['O', 'As', 'Rh', 'Sm', 'Eu']",8,144.4948,7.9292,4mm,P4mm,99,tetragonal,-65.0838,-2.0163,-0.0449,3D,0.0016,True,-0.0,,-0.0449,-0.0245
26115,F16K6Tc2,116a17acfa,K3TcF8,"['F', 'K', 'Tc']",24,385.8868,3.161,6mm,P6_3mc,186,hexagonal,-125.0163,-2.7937,-0.0787,intercalated ion,1.4048,True,0.0,,-0.0787,-0.0764
26137,O20P4U3Y1,116d55a3cc,YU3(PO5)4,"['O', 'P', 'Y', 'U']",28,422.635,4.899,1,P1,1,triclinic,-252.1642,-3.2575,-0.0174,3D,0.6692,False,0.0,,-0.0174,-0.0174
26161,O20Ti1Tm8V3,117356f7e0,Tm8TiV3O20,"['O', 'Ti', 'V', 'Tm']",32,421.3098,7.3789,m,Pm,6,monoclinic,-285.9344,-3.6257,-0.0034,3D,1.8971,True,0.0,,-0.0034,-0.0034
26191,O16S4Sc2Tl2,11781269b0,ScTl(SO4)2,"['O', 'S', 'Sc', 'Tl']",24,396.4084,3.6986,2,P321,150,trigonal,-168.8087,-2.3211,-0.005,intercalated ion,,False,0.0,,-0.005,-0.005
26217,Cs3O8Tc2,117c388187,Cs3(TcO4)2,"['O', 'Tc', 'Cs']",13,295.785,4.0573,2,C2,5,monoclinic,-90.831,-2.1415,-0.126,intercalated ion,0.0014,True,0.0,,-0.126,-0.124
26245,O13Pb1Sn2Ta4,1182e31380,Ta4Sn2PbO13,"['O', 'Sn', 'Ta', 'Pb']",20,306.0734,7.4674,m,Cm,8,monoclinic,-180.9059,-2.871,-0.0136,3D,2.5378,True,0.0,,-0.0136,-0.0136
26277,Br2In6Tm1Y9,1188431deb,Y9Tm(In3Br)2,"['Br', 'Y', 'In', 'Tm']",18,496.8116,6.0758,32,P312,149,trigonal,-95.4193,-0.7201,-0.0202,3D,,False,0.0,,-0.0202,-0.017
26279,Ho4O14Pr1Ta2Y1,118897fcbe,PrYHo4Ta2O14,"['O', 'Y', 'Pr', 'Ho', 'Ta']",22,300.7868,8.1453,2,C2,5,monoclinic,-207.4802,-3.8598,-0.0153,3D,3.5156,True,0.0,,-0.0153,-0.0118
26346,Br3H2Rb1,1193d42f91,RbH2Br3,"['H', 'Br', 'Rb']",6,197.1584,2.7558,1,P1,1,triclinic,-18.9557,-1.0465,-0.0241,intercalated ion,,True,-0.0,,-0.0241,-0.0143
26384,Bi2F12K3Rb3,119b818cdc,K3Rb3Bi2F12,"['F', 'K', 'Rb', 'Bi']",20,441.1382,3.8381,1,P1,1,triclinic,-95.7906,-2.94,-0.0223,intercalated ion,,True,0.0,,-0.0223,-0.0031
26426,Np4O18Pa1Sr5,11a167fa26,Sr5Np4PaO18,"['O', 'Sr', 'Pa', 'Np']",28,436.9452,7.2401,1,P1,1,triclinic,-259.8132,-3.607,-0.3346,intercalated ion,0.0006,True,0.0,,-0.3346,-0.1595
26471,Ag2Au2K4O4,11a8cce63f,K2AgAuO2,"['O', 'K', 'Ag', 'Au']",12,277.6825,4.9638,mm2,Imm2,44,orthorhombic,-49.3141,-1.0723,-0.0698,intercalated ion,1.5353,True,0.0,,-0.0698,-0.0055
26502,O38P4U10,11ae9eb643,U5P2O19,"['O', 'P', 'U']",52,882.7112,5.8545,2,P2_1,4,monoclinic,-500.7722,-3.4266,-0.0197,3D,,False,0.0,,-0.0197,-0.0197
26735,F28La1Np3Zr4,11d2360a53,LaZr4Np3F28,"['F', 'Zr', 'La', 'Np']",36,622.1277,4.6623,1,P1,1,triclinic,-276.7596,-4.0352,-0.0346,3D,0.0162,False,0.0,,-0.0346,-0.0339
26741,Al1In1O56P14Sr18,11d32c19cc,Sr18AlIn(PO4)14,"['O', 'Al', 'P', 'Sr', 'In']",90,1324.005,3.8234,1,P1,1,triclinic,-684.6949,-3.2768,-0.0069,intercalated ion,4.1225,True,0.0,,-0.0069,-0.0069
26814,Lu1Na4O6Sb1,11df9fa1e2,Na4LuSbO6,"['O', 'Na', 'Sb', 'Lu']",12,154.524,5.2085,2,C2,5,monoclinic,-72.8655,-2.4365,-0.017,intercalated ion,2.6575,True,0.0,,-0.017,-0.0164
26831,Au2F24Ir2,11e1ac7ad6,IrAuF12,"['F', 'Ir', 'Au']",28,442.9916,4.6268,mm2,Pmc2_1,26,orthorhombic,-110.6397,-1.4478,-0.0496,0D,0.0076,True,0.0,,-0.0496,-0.0043
26834,Gd4O12Rh1Tb2Y1,11e1d0a481,Tb2Gd4YRhO12,"['O', 'Y', 'Rh', 'Gd', 'Tb']",20,298.3983,7.4049,1,P1,1,triclinic,-210.8878,-3.6054,-0.0162,3D,1.8356,False,0.0,,-0.0162,-0.0118
26835,Gd1O12Ta1Y5,11e1d99681,GdY5TaO12,"['O', 'Y', 'Gd', 'Ta']",19,265.5298,6.0956,1,P1,1,triclinic,-189.6187,-3.7883,-0.003,3D,0.0092,True,0.0,,-0.003,-0.0026
26901,Ho1O8Re1Se1,11edf9febf,HoReSeO8,"['O', 'Se', 'Ho', 'Re']",11,200.4409,4.6235,3,P3,143,trigonal,-85.0543,-2.268,-0.051,2D,3.2613,True,0.0,,-0.051,-0.0509
26924,Br18Cs6In3Rh1,11f120df87,Cs6In3RhBr18,"['Br', 'Rh', 'In', 'Cs']",28,1092.0233,4.0799,3m,P3m1,156,trigonal,-94.9581,-1.5893,-0.0549,intercalated ion,1.6681,True,0.0,,-0.0549,-0.0548
27035,Ca2Gd2Mg2O12Ru2,120038c733,CaGdMgRuO6,"['O', 'Mg', 'Ca', 'Ru', 'Gd']",20,238.1044,5.84,m,Pc,7,monoclinic,-169.2695,-2.7991,-0.0238,intercalated ion,0.291,True,0.0,,-0.0238,-0.0204
27048,Ir3O12Rh1Zn2,1202c2bfa2,Zn2Ir3RhO12,"['O', 'Zn', 'Rh', 'Ir']",18,197.8735,8.4118,mm2,Cmm2,35,orthorhombic,-119.3998,-1.3125,-0.064,3D,0.0073,True,0.0,,-0.064,-0.0314
27157,F34Mo1Se1,121714cb62,MoSeF34,"['F', 'Se', 'Mo']",36,683.9153,1.993,1,P1,1,triclinic,-121.0916,-1.16,-0.3683,0D,,True,0.0,,-0.3683,-0.2723
27163,Cl2O8Sb5Y1,1217fe3345,YSb5(ClO4)2,"['O', 'Cl', 'Y', 'Sb']",16,287.4815,5.1789,2,P2,3,monoclinic,-103.8511,-2.0912,-0.0349,intercalated ion,,True,0.0,,-0.0349,-0.0035
27166,Br6Ca1Tc1,1218611471,CaTcBr6,"['Ca', 'Br', 'Tc']",8,288.4605,3.5547,3,R3,146,trigonal,-33.6477,-1.4325,-0.0845,intercalated ion,1.1136,True,0.0,,-0.0845,-0.0066
27190,Cd1Li11O48Pr12W8,121cd2b49b,Li11Pr12Cd(WO6)8,"['Li', 'O', 'Cd', 'Pr', 'W']",80,1051.0265,6.5067,1,P1,1,triclinic,-654.4856,-2.9249,-0.0365,3D,,False,0.0,,-0.0365,-0.0326
27205,Na2O14Sb2Se4,121edba06b,NaSbSe2O7,"['O', 'Na', 'Se', 'Sb']",22,335.1039,4.1096,mm2,Cmc2_1,36,orthorhombic,-128.9758,-1.5822,-0.0158,intercalated ion,2.534,True,0.0,,-0.0158,-0.0158
27217,Eu1La3O24S6,1220621e16,La3Eu(SO4)6,"['O', 'S', 'La', 'Eu']",34,503.6794,3.775,1,P1,1,triclinic,-257.0094,-2.5982,-0.2148,3D,,False,0.0,,-0.2148,-0.0456
27222,Br12La7Pr5Si4,1220fe9616,La7Pr5(SiBr3)4,"['Si', 'Br', 'La', 'Pr']",28,917.8801,4.9715,2,C2,5,monoclinic,-148.0166,-1.722,-0.0597,3D,0.0021,True,0.0,,-0.0597,-0.0463
27284,Ce6F30Ho1Th1,122b9c3175,Ce6HoThF30,"['F', 'Ce', 'Ho', 'Th']",38,627.3214,4.7848,2,C2,5,monoclinic,-266.2217,-4.2443,-0.0575,3D,,True,0.0,,-0.0575,-0.0545
27311,As6O24Rh1V5,1230678338,V5As6RhO24,"['O', 'V', 'As', 'Rh']",36,502.7809,3.934,2,C2,5,monoclinic,-269.7438,-1.9515,-0.0095,3D,1.5116,False,-0.0,,-0.0095,-0.0092
27345,O20Pu5Ta1,1236e25c47,Pu5TaO20,"['O', 'Ta', 'Pu']",26,430.3156,6.6409,2,C2,5,monoclinic,-255.1115,-2.806,-0.2508,3D,,True,0.0,,-0.2508,-0.2468
27368,Lu6Np1O18W2,123c765b4f,Lu6Np(WO9)2,"['O', 'Lu', 'W', 'Np']",27,363.5202,8.8731,3,P3,143,trigonal,-249.4475,-3.4961,-0.0461,3D,1.1056,True,0.0,,-0.0461,-0.0428
27369,Ge3O2Pb3Y10,123c8ac571,Y10Ge3Pb3O2,"['O', 'Ge', 'Y', 'Pb']",18,437.6516,6.68,mm2,Fmm2,42,orthorhombic,-123.5208,-1.3481,-0.0072,3D,,True,0.0,,-0.0072,-0.0067
27401,Br2Ho10In5Pb1,12416363ae,Ho10In5PbBr2,"['Br', 'In', 'Ho', 'Pb']",18,490.4247,8.7709,mm2,Amm2,38,orthorhombic,-79.124,-0.6975,-0.0146,3D,0.0013,True,0.0,,-0.0146,-0.0019
27421,H1K3O7,12460ca62d,K3HO7,"['H', 'O', 'K']",11,229.9336,1.6632,1,P1,1,triclinic,-55.0979,-1.2489,-0.2641,intercalated ion,0.0022,True,0.0,,-0.2641,-0.2628
27422,Cl16Si1Ti3,124615cecd,Ti3SiCl16,"['Si', 'Cl', 'Ti']",20,791.1757,1.5509,1,P1,1,triclinic,-98.6195,-1.9966,-0.0002,0D,3.4031,True,0.0,,-0.0002,-0.0002
27439,Br2Ir2La2Pr2,124863790f,LaPrIrBr,"['Br', 'La', 'Pr', 'Ir']",8,241.7609,7.5819,6mm,P6_3mc,186,hexagonal,-50.8834,-1.3124,-0.0384,3D,0.02,False,0.0,,-0.0384,-0.0364
27445,Cl6Mg1Pt1,1248ddc3c8,MgPtCl6,"['Mg', 'Cl', 'Pt']",8,214.7696,3.3409,2,C2,5,monoclinic,-30.283,-1.4401,-0.1626,2D,2.093,True,-0.0,,-0.1626,-0.0448
27455,Ag6F18Ge1Tc2,124a8b30ae,Tc2Ag6GeF18,"['F', 'Ge', 'Tc', 'Ag']",27,453.6585,4.604,3,P3,143,trigonal,-131.1522,-2.0189,-0.1074,3D,,True,0.0,,-0.1074,-0.1074
27467,Br2Ga2Rb12Te8,124c2ed09f,Rb6GaTe4Br,"['Ga', 'Br', 'Rb', 'Te']",24,1018.9742,3.8225,6mm,P6_3mc,186,hexagonal,-76.6163,-1.2656,-0.0886,intercalated ion,1.9288,True,0.0,,-0.0886,-0.0505
27475,Bi10La10O10Pr8,124d59a519,La5Pr4(BiO)5,"['O', 'La', 'Pr', 'Bi']",38,1047.1246,7.5581,1,P1,1,triclinic,-261.5017,-2.2504,-0.021,3D,0.0061,True,-0.0,,-0.021,-0.0205
27480,Cl30I1Os5,124dc663dc,Os5ICl30,"['Cl', 'I', 'Os']",36,1110.728,3.2018,1,P1,1,triclinic,-143.9464,-0.8564,-0.1747,0D,,True,-0.0,,-0.1747,-0.1277
27508,Ag1Cl6Pd1,1251d5585e,AgPdCl6,"['Cl', 'Pd', 'Ag']",8,224.192,3.1627,1,P1,1,triclinic,-25.4043,-0.7876,-0.2202,2D,,True,0.0,,-0.2202,-0.0204
27517,Ir3O4Pd5Sc16,1253e7d8c0,Sc16Ir3Pd5O4,"['O', 'Sc', 'Pd', 'Ir']",28,460.4753,6.823,3m,R3m,160,trigonal,-216.9858,-1.5521,-0.003,3D,,True,0.0,,-0.003,-0.0029
27522,O13Os3Pb4Rh1,12544f4627,Os3RhPb4O13,"['O', 'Rh', 'Os', 'Pb']",21,284.2472,9.9919,3m,R3m,160,trigonal,-151.7902,-1.5033,-0.0975,3D,0.0066,True,0.0,,-0.0975,-0.0263
27541,Cu4La1O12Tm3,12563bd236,LaTm3(CuO3)4,"['O', 'Cu', 'La', 'Tm']",20,250.5821,7.2356,m,Pm,6,monoclinic,-143.9988,-2.4931,-0.0172,3D,0.9293,False,0.0,,-0.0172,-0.0058
27553,F28La4Tl1V3,12579b690b,La4TlV3F28,"['F', 'V', 'La', 'Tl']",36,592.5656,4.0487,1,P1,1,triclinic,-230.5954,-3.5477,-0.0146,3D,,True,0.0,,-0.0146,-0.0119
27594,Br2C2Gd3Ho1,1261867456,Gd3Ho(CBr)2,"['C', 'Br', 'Gd', 'Ho']",8,169.0485,8.0597,3m,P3m1,156,trigonal,-77.4224,-1.1105,-0.0545,3D,0.0053,True,0.0,,-0.0545,-0.0097
27612,F28Pr4Re1Tc3,1264466d6d,Pr4ReTc3F28,"['F', 'Tc', 'Pr', 'Re']",36,586.2342,4.4635,1,P1,1,triclinic,-236.2449,-3.3354,-0.0846,3D,0.9022,True,0.0,,-0.0846,-0.0834
27618,O26P6U2W2,1265691814,UP3WO13,"['O', 'P', 'W', 'U']",36,584.9932,4.1033,1,P1,1,triclinic,-308.6714,-2.7513,-0.0161,3D,1.0253,False,0.0,,-0.0161,-0.0151
27645,Bi2Cl2La6Pr4Sn4,1268a01265,La3Pr2Sn2BiCl,"['Cl', 'Sn', 'La', 'Pr', 'Bi']",18,553.596,7.0812,mm2,Ama2,40,orthorhombic,-96.7263,-1.1373,-0.0366,3D,0.0007,True,-0.0,,-0.0366,-0.0362
27655,Cl18Ti4Tl6,1269f27ce8,Ti2(TlCl3)3,"['Cl', 'Ti', 'Tl']",28,750.9908,4.5459,6mm,P6_3mc,186,hexagonal,-128.3003,-1.7598,-0.0085,intercalated ion,,True,0.0,,-0.0085,-0.0084
27656,Ga2K2O16Pd6,1269f6d914,KGaPd3O8,"['O', 'K', 'Ga', 'Pd']",26,313.1575,5.8973,m,Cm,8,monoclinic,-151.4868,-1.2678,-0.0888,inf,,True,0.0,,-0.0888,-0.0406
27679,Br6Eu1Lu1O18,126d9a4de4,EuLu(BrO3)6,"['O', 'Br', 'Eu', 'Lu']",26,492.9652,3.6863,3,P3,143,trigonal,-138.9973,-0.9731,-0.1566,3D,,True,0.0,,-0.1566,-0.1425
27702,As1Bi6Br1La3Pr7,127215cdef,La3Pr7Bi6AsBr,"['As', 'Br', 'La', 'Pr', 'Bi']",18,562.9935,8.2933,1,P1,1,triclinic,-97.0833,-1.0651,-0.0056,3D,0.0034,True,0.0,,-0.0056,-0.005
27732,Br16Cs2Ga4In1Rb1,1277438b7a,Cs2RbIn(GaBr4)4,"['Ga', 'Br', 'Rb', 'In', 'Cs']",24,1024.8082,3.2787,2,P2,3,monoclinic,-79.8879,-1.5026,-0.0035,intercalated ion,3.1633,True,0.0,,-0.0035,-0.0033
27736,Bi7Cd9O24,1277e05a14,Cd9Bi7O24,"['O', 'Cd', 'Bi']",40,603.0311,7.8715,2,C2,5,monoclinic,-211.5828,-1.4324,-0.0331,3D,,True,0.0,,-0.0331,-0.0304
27737,Al1O8Pt3Rb1,1277e684a2,RbAlPt3O8,"['O', 'Al', 'Rb', 'Pt']",13,162.4279,8.4413,1,P1,1,triclinic,-82.8585,-1.5643,-0.0418,inf,1.1458,False,0.0,,-0.0418,-0.0365
27752,Cl2Ho9Pb6Y1,1279f5201c,YHo9(Pb3Cl)2,"['Cl', 'Y', 'Ho', 'Pb']",18,480.1645,9.9854,mm2,Amm2,38,orthorhombic,-89.469,-0.8771,-0.0232,3D,0.0004,True,0.0,,-0.0232,-0.0181
27806,Bi1F20Sb2V1,12829e5a40,VBiSb2F20,"['F', 'V', 'Sb', 'Bi']",24,409.3974,3.5832,2,C2,5,monoclinic,-120.1471,-2.5286,-0.0032,0D,2.0611,True,0.0,,-0.0032,-0.003
27827,Cl12F8Ru4,1285e721b0,RuCl3F2,"['F', 'Cl', 'Ru']",24,639.0038,2.5511,-4,I-4,82,tetragonal,-107.5857,-1.3756,-0.1654,0D,0.4996,True,0.0,,-0.1654,-0.0233
27850,Hf3O13Pb4W1,1289579f3c,Hf3Pb4WO13,"['O', 'Hf', 'W', 'Pb']",21,313.9466,9.2884,3m,R3m,160,trigonal,-179.6215,-2.7437,-0.0137,3D,1.5298,True,0.0,,-0.0137,-0.0115
27853,F28Pd4Pr1Tm3,12898e68bc,PrTm3Pd4F28,"['F', 'Pd', 'Pr', 'Tm']",36,516.5889,5.1603,1,P1,1,triclinic,-195.4674,-2.8616,-0.1644,3D,1.6148,True,0.0,,-0.1644,-0.0388
27906,La1O2P2Pr1Rh2,129219d709,LaPrP2(RhO)2,"['O', 'P', 'Rh', 'La', 'Pr']",8,140.0337,6.8726,4mm,P4mm,99,tetragonal,-62.8159,-2.206,-0.0339,3D,,True,0.0,,-0.0339,-0.0001
27907,Nb2O24P6Sn2,129232720d,NbSn(PO4)3,"['O', 'P', 'Nb', 'Sn']",34,502.5444,3.2813,1,P1,1,triclinic,-271.454,-2.7059,-0.0123,intercalated ion,2.8236,True,0.0,,-0.0123,-0.004
27921,F28Mo3Ru1Sm4,12942087d1,Sm4Mo3RuF28,"['F', 'Mo', 'Ru', 'Sm']",36,555.2814,4.5523,1,P1,1,triclinic,-236.9244,-3.4088,-0.036,3D,,True,0.0,,-0.036,-0.0067
27922,Cl35W1,12943ca26a,WCl35,"['Cl', 'W']",36,1307.6172,1.8092,1,P1,1,triclinic,-103.6677,-0.7225,-0.4543,0D,,True,0.0,,-0.4543,-0.4541
27935,Hf1Nb2O24P6W1,1296870a4f,HfNb2P6WO24,"['O', 'P', 'Nb', 'Hf', 'W']",34,511.3703,3.6303,1,P1,1,triclinic,-293.0318,-2.9024,-0.0172,intercalated ion,2.1295,True,0.0,,-0.0172,-0.0082
28105,La3O26P8Pr1,12b4b23616,La3Pr(P4O13)2,"['O', 'P', 'La', 'Pr']",38,598.6148,3.3881,1,P1,1,triclinic,-311.6759,-3.1614,-0.0022,3D,4.8938,True,0.0,,-0.0022,-0.0008
28136,Br18Li2Rb6Sc4,12ba1df0f9,Rb3LiSc2Br9,"['Li', 'Sc', 'Br', 'Rb']",30,1001.7778,3.5552,3,P3,143,trigonal,-125.757,-2.042,-0.0053,intercalated ion,0.0119,True,0.0,,-0.0053,-0.0044
28329,F14Tb2W2,12dc576f60,TbWF7,"['F', 'Tb', 'W']",18,285.5457,5.5333,2,P2_1,4,monoclinic,-125.8143,-3.5483,-0.1028,3D,3.7168,True,0.0,,-0.1028,-0.0913
28334,Cl8Cu1Ga2Li1,12dd0fbe14,LiGa2CuCl8,"['Li', 'Cl', 'Cu', 'Ga']",12,321.1207,2.5522,-4,P-4,81,tetragonal,-45.5066,-1.5543,-0.0053,intercalated ion,,True,0.0,,-0.0053,-0.0022
28349,F24Hg6Nb2W2,12e0b134f5,NbHg3WF12,"['F', 'Nb', 'W', 'Hg']",34,673.8749,5.4532,2,P2_1,4,monoclinic,-181.1071,-2.5674,-0.0312,1D,,True,-0.0,,-0.0312,-0.0301
28388,Hg1O9P3Rb1,12e59a7fb8,RbHg(PO3)3,"['O', 'P', 'Rb', 'Hg']",14,255.0006,3.4056,3,R3,146,trigonal,-95.409,-2.3824,-0.0108,3D,3.2565,True,0.0,,-0.0108,-0.0096
28402,F24Ir1Pt3,12e8af22d5,IrPt3F24,"['F', 'Ir', 'Pt']",28,445.8932,4.5934,m,Pm,6,monoclinic,-116.4044,-1.5528,-0.0015,0D,0.0008,True,0.0,,-0.0015,-0.0007