Unnamed: 0,Composition,MaterialId,Reduced Formula,Elements,NSites,Volume,Density,Point Group,Space Group,Space Group Number,Crystal System,Corrected Energy,Formation Energy Per Atom,Decomposition Energy Per Atom,Dimensionality Cheon,Bandgap,Is Train,Decomposition Energy Per Atom All,Decomposition Energy Per Atom Relative,Decomposition Energy Per Atom MP,Decomposition Energy Per Atom MP OQMD
105869,F20Ho5Pr1Rb2,469e31b1f5,Rb2PrHo5F20,"['F', 'Rb', 'Pr', 'Ho']",28,406.8699,6.1891,4mm,I4mm,107,tetragonal,-187.8148,-4.2833,-0.0419,intercalated ion,7.0011,True,0.0,,-0.0419,-0.0002
105882,F28Hf4La3Sm1,46a0876e06,La3SmHf4F28,"['F', 'La', 'Sm', 'Hf']",36,614.1926,4.9016,1,P1,1,triclinic,-268.8697,-4.3331,-0.0024,3D,6.3409,True,0.0,,-0.0024,-0.0018
105907,O6Pr1Pt1Sb1,46a3f7b4f7,PrSbPtO6,"['O', 'Sb', 'Pr', 'Pt']",9,128.7056,7.1444,32,P312,149,trigonal,-64.4995,-2.2034,-0.0349,3D,,True,0.0,,-0.0349,-0.0349
105922,O12Re1Ru1Tb5,46a651a169,Tb5ReRuO12,"['O', 'Ru', 'Tb', 'Re']",19,256.7964,8.2375,2,C2,5,monoclinic,-166.7828,-3.2903,-0.0468,3D,0.6211,True,0.0,,-0.0468,-0.0391
105966,Gd4Ho1O14Ta2Tm1,46ad22b2f6,Gd4HoTmTa2O14,"['O', 'Gd', 'Ho', 'Tm', 'Ta']",22,302.8397,8.4922,1,P1,1,triclinic,-242.9259,-3.8444,-0.0043,3D,,True,-0.0,,-0.0043,-0.0042
105999,Ca10F1Pb2Pd4,46b197886e,Ca10Pd4Pb2F,"['F', 'Ca', 'Pd', 'Pb']",17,460.694,4.5411,-42m,I-42m,121,tetragonal,-66.0699,-0.9387,-0.0095,intercalated ion,0.0113,True,0.0,,-0.0095,-0.0089
106038,Ba4O16Te1W3,46b9d1c8ec,Ba4TeW3O16,"['O', 'Te', 'Ba', 'W']",24,425.4084,5.7943,2,P2,3,monoclinic,-191.8582,-2.6249,-0.0151,intercalated ion,,True,0.0,,-0.0151,-0.0151
106048,Ga5O1Si1Zr10,46bb5d542d,Zr10Ga5SiO,"['O', 'Si', 'Ga', 'Zr']",17,322.8208,6.7124,m,Cm,8,monoclinic,-126.2371,-0.8968,-0.0254,3D,0.0022,False,0.0,,-0.0254,-0.0141
106055,O24Sm1Tm6W4Y1,46bce47207,SmYTm6(WO6)4,"['O', 'Y', 'Sm', 'Tm', 'W']",36,455.0992,8.6556,2,P2,3,monoclinic,-328.5439,-3.3311,-0.0047,3D,,False,0.0,,-0.0047,-0.0045
106065,Ho5O14Pr1W2,46bf214dc8,PrHo5(WO7)2,"['O', 'Pr', 'Ho', 'W']",22,299.4301,8.6359,2,C2,5,monoclinic,-199.6192,-3.4881,-0.0288,3D,2.4232,True,0.0,,-0.0288,-0.0153
106068,F24I1Pd1Rh2,46bfa88da7,PdRh2IF24,"['F', 'Rh', 'Pd', 'I']",28,451.0232,3.2955,m,Pm,6,monoclinic,-111.5815,-1.5812,-0.0251,0D,0.0004,True,0.0,,-0.0251,-0.0072
106112,Br12Na1Pr1Rh1Y5,46c721996c,NaPrY5RhBr12,"['Na', 'Br', 'Y', 'Rh', 'Pr']",20,677.6839,4.0925,1,P1,1,triclinic,-105.2575,-1.9907,-0.005,intercalated ion,,True,-0.0,,-0.005,-0.0048
106117,Cd3O24Tc6,46c87a43f1,Cd(TcO4)2,"['O', 'Tc', 'Cd']",33,532.773,4.0806,3m,P31m,157,trigonal,-244.4755,-1.8422,-0.1212,3D,,True,0.0,,-0.1212,-0.1212
106123,Br20Np3Rb8Tb1,46c8ea296d,Rb8TbNp3Br20,"['Br', 'Rb', 'Tb', 'Np']",32,1171.6748,4.4668,m,Pm,6,monoclinic,-149.113,-2.0329,-0.0591,intercalated ion,,True,0.0,,-0.0591,-0.0489
106142,Bi3O20Pr5Se4,46ccb7e794,Pr5Bi3(SeO5)4,"['O', 'Se', 'Pr', 'Bi']",32,543.3216,6.0126,1,P1,1,triclinic,-226.0997,-2.4244,-0.0225,3D,3.3046,True,0.0,,-0.0225,-0.0197
106166,Ce6F30Sm1Y1,46cf8b0d99,Ce6SmYF30,"['F', 'Y', 'Ce', 'Sm']",38,608.3578,4.5035,2,C2,5,monoclinic,-261.6631,-4.1457,-0.006,3D,2.2155,True,0.0,,-0.006,-0.006
106188,Br2Gd1Se2Tb1,46d2fed447,TbGd(SeBr)2,"['Se', 'Br', 'Gd', 'Tb']",6,220.9666,4.7637,mm2,Pmm2,25,orthorhombic,-42.4656,-2.2448,-0.0173,2D,,True,0.0,,-0.0173,-0.0045
106230,Hf1O2Sn6Tb6Zr3,46dae77e68,Tb6HfZr3(Sn3O)2,"['O', 'Zr', 'Sn', 'Tb', 'Hf']",18,403.0664,8.8574,32,P312,149,trigonal,-120.6982,-1.2966,-0.0336,3D,0.0084,True,0.0,,-0.0336,-0.0335
106258,Lu5O16Rb17,46def59de8,Rb17Lu5O16,"['O', 'Rb', 'Lu']",38,925.5681,4.6355,m,Cm,8,monoclinic,-202.5341,-2.213,-0.0365,intercalated ion,inf,True,0.0,,-0.0365,-0.0361
106264,Ca1O24P6Sn2V2,46e07e13ea,CaV2Sn2(PO4)6,"['O', 'P', 'Ca', 'V', 'Sn']",35,466.9387,3.3756,1,P1,1,triclinic,-272.4389,-2.6576,-0.0066,intercalated ion,1.4096,True,0.0,,-0.0066,-0.0058
106276,Al1Br16V3,46e285933c,AlV3Br16,"['Al', 'V', 'Br']",20,794.8782,3.0464,1,P1,1,triclinic,-82.6996,-1.2756,-0.2636,0D,,False,0.0,,-0.2636,-0.0221
106318,F30Ta5Tc1,46e8f341d6,Ta5TcF30,"['F', 'Tc', 'Ta']",36,667.6171,3.9117,m,Pm,6,monoclinic,-248.4243,-3.3731,-0.0097,0D,0.3525,True,0.0,,-0.0097,-0.009
106320,Cu1Ir2O4Rh5Ti16,46e91c4193,Ti16CuIr2Rh5O4,"['O', 'Ti', 'Cu', 'Rh', 'Ir']",28,392.6454,7.5802,1,P1,1,triclinic,-241.32,-1.3072,-0.0204,3D,0.0032,True,0.0,,-0.0204,-0.0084
106371,Br12P2Pr5Sm3,46f02afd56,Pr5Sm3(PBr6)2,"['P', 'Br', 'Pr', 'Sm']",22,823.0515,4.391,m,Pm,6,monoclinic,-114.0751,-2.0702,-0.0422,3D,,True,0.0,,-0.0422,-0.0264
106424,Al2Gd6O1Tc14,46f98cc45e,Gd6Al2Tc14O,"['O', 'Al', 'Tc', 'Gd']",23,402.906,9.8315,m,Cm,8,monoclinic,-253.4657,-0.4956,-0.1061,3D,,True,0.0,,-0.1061,-0.1039
106428,Br6O18Sm2,46f9d4bde1,Sm(BrO3)3,"['O', 'Br', 'Sm']",26,518.4531,3.4211,m,Cc,9,monoclinic,-134.8167,-1.019,-0.1612,3D,,True,0.0,,-0.1612,-0.158
106445,Br12Ir1La5Pr1Rb1,46fc862017,RbLa5PrIrBr12,"['Br', 'Rb', 'La', 'Pr', 'Ir']",20,809.4525,4.2505,1,P1,1,triclinic,-101.3313,-2.1204,-0.0048,intercalated ion,0.1889,True,0.0,,-0.0048,-0.0048
106446,Cl2Pb6Y7Zr3,46fcade3eb,Y7Zr3(Pb3Cl)2,"['Cl', 'Y', 'Zr', 'Pb']",18,458.5477,8.0035,32,P312,149,trigonal,-111.854,-0.8318,-0.0514,3D,,True,0.0,,-0.0514,-0.0169
106460,Cl2H4Ho1Y1,46fefa264a,YHo(H2Cl)2,"['H', 'Cl', 'Y', 'Ho']",8,128.7097,4.2417,3m,R3m,160,trigonal,-39.8393,-1.4403,-0.037,2D,1.6459,True,0.0,,-0.037,-0.0162
106528,Br23Ti1,470aab0682,TiBr23,"['Ti', 'Br']",24,1245.5959,2.5138,1,P1,1,triclinic,-63.7587,-0.7589,-0.4132,intercalated molecule,,True,0.0,,-0.4132,-0.4131
106592,O24P6Ru2U2,4715f7ee8a,UP3RuO12,"['O', 'P', 'Ru', 'U']",34,547.0558,3.7883,3,R3,146,trigonal,-282.4478,-2.6496,-0.04,intercalated ion,,True,-0.0,,-0.04,-0.04
106606,Cl2Pr4Sn6Th6,47183d2b3a,Pr2Th3Sn3Cl,"['Cl', 'Sn', 'Pr', 'Th']",18,520.8326,8.7327,mm2,Ama2,40,orthorhombic,-108.658,-0.9609,-0.0555,3D,0.0055,True,-0.0,,-0.0555,-0.0522
106655,Br1Gd1Mg2N12P6,472246ec69,GdMg2P6BrN12,"['N', 'Mg', 'P', 'Br', 'Gd']",22,307.6693,3.4525,m,Cm,8,monoclinic,-173.0072,-0.9807,-0.113,3D,,True,0.0,,-0.113,-0.039
106658,Bi1O6Pr1Pt1,4722f1dd9c,PrBiPtO6,"['O', 'Pr', 'Pt', 'Bi']",9,134.1285,7.9353,32,P312,149,trigonal,-62.0433,-1.9571,-0.0436,3D,0.9414,True,0.0,,-0.0436,-0.0436
106719,F14Pu2Re2,472d3ed0b6,PuReF7,"['F', 'Re', 'Pu']",18,286.5595,6.5272,2,P2_1,4,monoclinic,-135.6876,-3.0835,-0.008,3D,,True,0.0,,-0.008,-0.0037
106758,Ag2Cl8Hf3,4733a7b9e6,Hf3(AgCl4)2,"['Cl', 'Ag', 'Hf']",13,579.6451,2.9645,1,P1,1,triclinic,-85.4235,-2.6999,-0.8944,1D,0.0157,True,0.0,,-0.8944,-0.8868
106810,O16Pb3Sn9,473b280ca3,Sn9Pb3O16,"['O', 'Sn', 'Pb']",28,495.8624,6.5167,m,Pm,6,monoclinic,-177.482,-1.8247,-0.0092,3D,1.4922,True,0.0,,-0.0092,-0.0092
106838,As4Cd4K4O16,4740ec19d2,KCdAsO4,"['O', 'K', 'As', 'Cd']",28,513.913,3.7537,mm2,Pna2_1,33,orthorhombic,-158.0493,-1.8612,-0.0475,intercalated ion,2.2914,True,0.0,,-0.0475,-0.036
106887,Br2In6Tb5Y5,474990c5d5,Tb5Y5(In3Br)2,"['Br', 'Y', 'In', 'Tb']",18,495.0655,7.0031,mm2,Amm2,38,orthorhombic,-88.0949,-0.7115,-0.0229,3D,,True,0.0,,-0.0229,-0.018
106942,Ba10F1Si6,475202180d,Ba10Si6F,"['F', 'Si', 'Ba']",17,603.2346,4.2964,-42m,I-42m,121,tetragonal,-64.9799,-0.6663,-0.0065,intercalated ion,0.0174,False,0.0,,-0.0065,-0.0055
106948,Br12C2Cs1Pr5Tm1,47530fbe92,CsPr5Tm(CBr6)2,"['C', 'Br', 'Cs', 'Pr', 'Tm']",21,717.8394,4.6016,1,P1,1,triclinic,-108.7618,-1.9709,-0.0385,intercalated ion,0.0048,False,0.0,,-0.0385,-0.0231
106951,Eu2O8Tc1V1,4753646610,Eu2VTcO8,"['O', 'V', 'Tc', 'Eu']",12,185.7217,5.1935,-42m,I-4m2,119,tetragonal,-113.1198,-2.7923,-0.1799,3D,0.0028,True,0.0,,-0.1799,-0.1363
106960,Br12Na1Pr1Rh1Sm5,4755a9b1f5,NaPrSm5RhBr12,"['Na', 'Br', 'Rh', 'Pr', 'Sm']",20,710.3389,4.6226,1,P1,1,triclinic,-96.3208,-1.9808,-0.0163,intercalated ion,0.0163,True,0.0,,-0.0163,-0.0162
106979,Bi2O16Pr2Te4,475857c22b,PrBi(TeO4)2,"['O', 'Te', 'Pr', 'Bi']",24,351.7179,6.9221,2,C2,5,monoclinic,-159.6572,-2.1073,-0.0141,3D,2.1869,True,0.0,,-0.0141,-0.0139
106987,In1O16Os4Tb3,47598deaed,Tb3In(OsO4)4,"['O', 'In', 'Tb', 'Os']",24,300.9186,8.8761,1,P1,1,triclinic,-196.3401,-2.317,-0.0298,3D,0.0039,True,-0.0,,-0.0298,-0.0241
106989,Br14H8S1Th6,4759d34bd0,Th6H8SBr14,"['H', 'S', 'Br', 'Th']",29,783.8508,5.4042,mm2,Fmm2,42,orthorhombic,-146.1839,-1.6381,-0.0099,3D,2.3284,True,0.0,,-0.0099,-0.0099
107048,Br12Ca1La5Os1Y1,4764c09e7a,CaLa5YOsBr12,"['Ca', 'Br', 'Y', 'La', 'Os']",20,760.5776,4.3067,1,P1,1,triclinic,-105.5006,-2.0739,-0.0496,intercalated ion,0.2872,True,-0.0,,-0.0496,-0.0466
107079,Bi4O16Ru2Sb2,476a552664,Bi2SbRuO8,"['O', 'Ru', 'Sb', 'Bi']",24,348.4435,7.3274,m,Pc,7,monoclinic,-161.9784,-1.6852,-0.0121,3D,0.0054,True,0.0,,-0.0121,-0.0121
107129,Al6Ca4O16Ru1,4772207a75,Ca4Al6RuO16,"['O', 'Al', 'Ca', 'Ru']",27,413.9867,2.7246,-4,I-4,82,tetragonal,-203.8727,-3.1457,-0.007,intercalated ion,0.5594,True,0.0,,-0.007,-0.007
107131,Au9Mg6O18Pd3,4772600358,Mg2Pd(AuO2)3,"['O', 'Mg', 'Pd', 'Au']",36,449.1314,9.3384,32,P3_112,151,trigonal,-195.061,-1.4439,-0.0868,3D,,True,0.0,,-0.0868,-0.0682
107168,Br12Tc12Te12,477890d6b0,TcTeBr,"['Br', 'Tc', 'Te']",36,1202.1555,5.0639,222,C222_1,20,orthorhombic,-207.9954,-0.7307,-0.1132,2D,0.8262,True,0.0,,-0.1132,-0.1002
107207,Br12Ho1P4Pu11,47806ba6ad,HoPu11(PBr3)4,"['P', 'Br', 'Ho', 'Pu']",28,809.3953,8.0661,2,C2,5,monoclinic,-247.8652,-1.6086,-0.0833,intercalated ion,,False,0.0,,-0.0833,-0.0035
107208,Cl3Pb1S24,4780dd3785,Pb(S8Cl)3,"['S', 'Cl', 'Pb']",28,958.697,1.876,3m,R3m,160,trigonal,-124.8134,-0.5814,-0.3803,0D,2.6693,True,0.0,,-0.3803,-0.3803
107237,Br1F10N1,47847124cd,BrNF10,"['N', 'F', 'Br']",12,190.3788,2.4762,m,Cm,8,monoclinic,-41.5948,-1.0422,-0.2942,0D,2.1495,True,0.0,,-0.2942,-0.1115
107267,Ir1Lu6O18W2,478a2b7625,Lu6Ir(WO9)2,"['O', 'Lu', 'W', 'Ir']",27,355.2593,8.8701,3,P3,143,trigonal,-236.3482,-3.1631,-0.0146,3D,0.3419,True,0.0,,-0.0146,-0.0037
107308,Ho3Ir2O14Pr2Tb1,47921a6a71,TbPr2Ho3(IrO7)2,"['O', 'Pr', 'Tb', 'Ho', 'Ir']",22,296.0198,8.6609,m,Pm,6,monoclinic,-183.0508,-3.0981,-0.045,3D,0.0005,False,-0.0,,-0.045,-0.0361
107334,Ag2O24P6Ti4,4795bb1e4b,Ti2Ag(PO4)3,"['O', 'P', 'Ti', 'Ag']",36,479.8435,3.3811,1,P1,1,triclinic,-290.3098,-2.8287,-0.0337,3D,1.9969,True,0.0,,-0.0337,-0.0305
107349,Cs6O15Pd5,4797f7fc40,Cs6(PdO3)5,"['O', 'Pd', 'Cs']",26,523.5416,4.9781,32,R32,155,trigonal,-135.6306,-1.1592,-0.1942,intercalated ion,0.0686,True,-0.0,,-0.1942,-0.0884
107355,Br6Ru2Sm5Y1,4798b14ebb,Sm5Y(RuBr3)2,"['Br', 'Y', 'Ru', 'Sm']",14,443.1601,5.704,m,Pm,6,monoclinic,-78.8171,-1.4562,-0.0178,3D,,False,0.0,,-0.0178,-0.0178
107367,Cl2In6Sm7Tm3,479a331233,Sm7Tm3(In3Cl)2,"['Cl', 'In', 'Sm', 'Tm']",18,481.8586,7.992,32,P312,149,trigonal,-80.0962,-0.7462,-0.0127,3D,,True,0.0,,-0.0127,-0.0054
107378,Br6Mo1Pb1,479bfe51d4,MoPbBr6,"['Br', 'Mo', 'Pb']",8,306.8358,4.2351,1,P1,1,triclinic,-33.0806,-1.0876,-0.1169,2D,,True,0.0,,-0.1169,-0.0081
107409,Cd4Nb5O24Ta3,47a1eda54a,Ta3Nb5Cd4O24,"['O', 'Nb', 'Cd', 'Ta']",36,469.0912,6.517,1,P1,1,triclinic,-309.5897,-2.8074,-0.0031,3D,3.4531,True,0.0,,-0.0031,-0.0003
107420,La1Mg2O12Pr3Pt2,47a4b03f30,LaPr3Mg2(PtO6)2,"['O', 'Mg', 'La', 'Pr', 'Pt']",20,255.2207,7.7581,1,P1,1,triclinic,-151.0601,-2.8532,-0.0335,3D,2.0842,True,0.0,,-0.0335,-0.0178
107429,F28Ru3Tc1Y4,47a57dab3c,Y4TcRu3F28,"['F', 'Y', 'Tc', 'Ru']",36,532.6819,4.0176,1,P1,1,triclinic,-231.7003,-3.1703,-0.0525,3D,0.0026,False,0.0,,-0.0525,-0.0494
107445,Np4O18Sr5U1,47a735fdbc,Sr5Np4UO18,"['O', 'Sr', 'U', 'Np']",28,436.9452,7.2667,1,P1,1,triclinic,-260.5691,-3.5706,-0.1436,intercalated ion,,True,0.0,,-0.1436,-0.0794
107512,Br2K12S8Tl2,47b1991cb6,K6TlS4Br,"['S', 'K', 'Br', 'Tl']",24,757.2196,2.8383,6mm,P6_3mc,186,hexagonal,-85.1833,-1.2821,-0.0266,intercalated ion,,True,0.0,,-0.0266,-0.0266
107532,Al1K1O8Pd3,47b504f1e0,KAlPd3O8,"['O', 'Al', 'K', 'Pd']",13,157.0549,5.4275,1,P1,1,triclinic,-79.3705,-1.4916,-0.0905,inf,0.7928,True,0.0,,-0.0905,-0.0423
107543,Ga1Ir2O12Rh3,47b687b292,GaIr2(RhO4)3,"['O', 'Ga', 'Rh', 'Ir']",18,195.5129,8.1099,mm2,Cmm2,35,orthorhombic,-127.0583,-1.3825,-0.0329,3D,0.0015,True,0.0,,-0.0329,-0.0247
107548,Ce1F15Pa3,47b713f842,CePa3F15,"['F', 'Ce', 'Pa']",19,333.5741,5.5664,3m,R3m,160,trigonal,-142.9661,-4.2009,-3.1324,3D,,True,0.0,,-3.1324,-0.8456
107567,O12Ru1Tm5Zr1,47b935167d,Tm5ZrRuO12,"['O', 'Zr', 'Ru', 'Tm']",19,247.1204,8.258,1,P1,1,triclinic,-167.4646,-3.573,-0.0194,3D,,True,0.0,,-0.0194,-0.0118
107576,F9Li1Pd2,47b9e46838,LiPd2F9,"['Li', 'F', 'Pd']",12,157.0868,4.1307,32,P321,150,trigonal,-51.4384,-1.8305,-0.0062,intercalated ion,1.3283,True,0.0,,-0.0062,-0.0042
107623,Cl16F4Pa4,47c2feb3dd,PaCl4F,"['F', 'Cl', 'Pa']",24,956.5458,2.7209,-4,I-4,82,tetragonal,-140.2717,-2.7079,-0.6602,0D,2.6551,True,0.0,,-0.6602,-0.2752
107772,C2Cl2Tb2Y2,47dc9d2c7e,TbYCCl,"['C', 'Cl', 'Y', 'Tb']",8,158.4026,6.1912,6mm,P6_3mc,186,hexagonal,-54.4135,-1.2577,-0.1512,3D,0.0114,True,0.0,,-0.1512,-0.0047
107812,Br12La5Pr3S2,47e4da5207,La5Pr3(SBr6)2,"['S', 'Br', 'La', 'Pr']",22,817.4357,4.3477,m,Pm,6,monoclinic,-116.0288,-2.2314,-0.0358,3D,,True,0.0,,-0.0358,-0.0113
107839,C1Cl5Gd3Lu1,47e9b7bb9d,Gd3LuCCl5,"['C', 'Cl', 'Gd', 'Lu']",10,242.2749,5.7298,m,Cm,8,monoclinic,-85.437,-2.0218,-0.016,3D,0.005,True,0.0,,-0.016,-0.01
107907,Br6Os1Pt1Te12,47f45b61d8,Te12OsPtBr6,"['Br', 'Te', 'Os', 'Pt']",20,737.3729,5.3956,32,R32,155,trigonal,-77.9783,-0.6569,-0.2774,1D,1.1557,True,0.0,,-0.2774,-0.1912
107909,Ba6O15Pd4Tb1,47f4828eb2,Ba6TbPd4O15,"['O', 'Pd', 'Ba', 'Tb']",26,425.6662,6.4311,1,P1,1,triclinic,-169.0106,-2.2278,-0.0718,intercalated ion,0.4617,False,0.0,,-0.0718,-0.0001
107919,Ho5Mo2O12Y1,47f65d8a9a,YHo5(MoO6)2,"['O', 'Y', 'Mo', 'Ho']",20,289.3458,7.4459,1,P1,1,triclinic,-180.3889,-3.4972,-0.0174,3D,2.8543,True,0.0,,-0.0174,-0.0156
107980,Br18Cs2Nb3Sr1Ta3,47ff1c1bf8,Cs2SrTa3(NbBr6)3,"['Br', 'Sr', 'Nb', 'Cs', 'Ta']",27,852.0536,5.0929,1,P1,1,triclinic,-140.7435,-1.5526,-0.0223,intercalated ion,1.197,True,0.0,,-0.0223,-0.0223
107985,F3S24Te1,47ff9a5977,Te(S8F)3,"['F', 'S', 'Te']",28,1009.5066,1.5695,3m,R3m,160,trigonal,-127.7155,-0.6987,-0.368,0D,,True,0.0,,-0.368,-0.3614
108121,F5Na1O1Re1,4818449172,NaReOF5,"['O', 'F', 'Na', 'Re']",8,140.3864,3.7873,4mm,I4mm,107,tetragonal,-49.6116,-2.6668,-0.1058,intercalated ion,,True,0.0,,-0.1058,-0.0627
108125,Ba6F24In3Lu1,481950a847,Ba6LuIn3F24,"['F', 'In', 'Ba', 'Lu']",34,546.3888,5.4684,mm2,Amm2,38,orthorhombic,-198.1663,-3.7647,-0.0018,intercalated ion,4.7457,True,0.0,,-0.0018,-0.0018
108138,Br1Gd1Mg2N12P6,481b28c2e5,GdMg2P6BrN12,"['N', 'Mg', 'P', 'Br', 'Gd']",22,307.8419,3.4506,m,Cm,8,monoclinic,-173.0077,-0.9807,-0.113,3D,,True,0.0,,-0.113,-0.039
108205,Ir3Lu1O24Pr8,48256b1b22,Pr8Lu(IrO8)3,"['O', 'Pr', 'Lu', 'Ir']",36,544.7087,6.8983,1,P1,1,triclinic,-288.1143,-2.78,-0.0341,3D,0.0019,True,0.0,,-0.0341,-0.0303
108209,Ge1Ho5Ir1O12,4826150e4b,Ho5GeIrO12,"['O', 'Ge', 'Ho', 'Ir']",19,248.6196,8.5592,2,C2,5,monoclinic,-157.6249,-3.2566,-0.0418,3D,0.4275,True,0.0,,-0.0418,-0.034
108232,Br15H8Tb1Th5,4829ecb0ec,TbTh5H8Br15,"['H', 'Br', 'Tb', 'Th']",29,777.6962,5.393,4mm,I4mm,107,tetragonal,-141.4999,-1.6586,-0.0267,3D,2.5904,True,-0.0,,-0.0267,-0.0133
108238,Al1Br2La2Si1,482a87eeb9,La2AlSiBr2,"['Al', 'Si', 'Br', 'La']",6,173.6324,4.7118,3m,P3m1,156,trigonal,-31.1907,-1.479,-0.0266,2D,,True,0.0,,-0.0266,-0.0251
108242,Bi3Ho2O14Sm3,482b0fe6cb,Sm3Ho2Bi3O14,"['O', 'Sm', 'Ho', 'Bi']",22,327.216,8.2813,1,P1,1,triclinic,-168.2701,-2.9095,-0.0396,3D,1.4951,True,0.0,,-0.0396,-0.0396
108244,F24Np3Pt1,482b60cc15,Np3PtF24,"['F', 'Pt', 'Np']",28,550.8791,4.1057,m,Pm,6,monoclinic,-174.674,-2.9959,-0.0295,0D,0.0316,True,0.0,,-0.0295,-0.0293
108360,As2La1O2Pr1Ru2,483f00b774,LaPrAs2(RuO)2,"['O', 'As', 'Ru', 'La', 'Pr']",8,146.129,7.543,4mm,P4mm,99,tetragonal,-63.9024,-2.0528,-0.105,3D,0.0151,True,0.0,,-0.105,-0.0006
108390,Br18Hf3Tl2Zr1,484501f5d1,Hf3Zr(TlBr9)2,"['Br', 'Zr', 'Hf', 'Tl']",24,878.1556,4.6777,1,P1,1,triclinic,-114.3619,-1.7398,-0.0394,intercalated ion,,True,0.0,,-0.0394,-0.0011
108431,Br12K1Pa2Sr1,484a868294,KSr(PaBr6)2,"['K', 'Br', 'Sr', 'Pa']",16,622.7817,4.1265,-4,P-4,81,tetragonal,-74.3912,-2.0574,-0.0422,intercalated ion,,True,-0.0,,-0.0422,-0.0272
108541,Br17Cs2La1Os2Sm9,485bfae713,Cs2LaSm9Os2Br17,"['Br', 'Cs', 'La', 'Sm', 'Os']",31,1118.4901,5.1914,m,Cm,8,monoclinic,-157.178,-1.8613,-0.0488,intercalated ion,,True,-0.0,,-0.0488,-0.0488
108556,Cu4La1Na1O8,485e24032a,NaLa(CuO2)4,"['O', 'Na', 'Cu', 'La']",14,164.6501,5.4871,-4,I-4,82,tetragonal,-84.8035,-1.6114,-0.0532,intercalated ion,0.7431,True,-0.0,,-0.0532,-0.0456
108597,Br30Os5Ta1,48661197d1,Ta(OsBr6)5,"['Br', 'Ta', 'Os']",36,1309.6616,4.4747,1,P1,1,triclinic,-142.7146,-0.7114,-0.107,0D,,True,0.0,,-0.107,-0.1068
108648,Nb8O24Pb3Sr1,486d1947c9,SrNb8(PbO8)3,"['O', 'Sr', 'Nb', 'Pb']",36,503.7579,6.0535,1,P1,1,triclinic,-315.8447,-2.8738,-0.0045,intercalated ion,2.4391,True,0.0,,-0.0045,-0.002
108670,Nb2O18Sb1Sr8Ta1,48700874e4,Sr8TaNb2SbO18,"['O', 'Sr', 'Nb', 'Sb', 'Ta']",30,488.2437,5.0249,3,P3,143,trigonal,-234.4175,-3.1883,-0.0108,intercalated ion,3.722,True,0.0,,-0.0108,-0.0094
108679,Li4Mg2O48P16V2,4870923dbd,Li2MgV(PO3)8,"['Li', 'O', 'Mg', 'P', 'V']",72,998.3794,2.3981,222,P2_12_12,18,orthorhombic,-546.3704,-2.684,-0.0008,intercalated ion,,True,0.0,,-0.0008,-0.0008
108698,Ga1O48Rb8Sc3Si16Tb4,4873a8fa0a,Rb8Tb4Sc3Ga(SiO3)16,"['O', 'Si', 'Sc', 'Ga', 'Rb', 'Tb']",80,1266.8826,3.5932,1,P1,1,triclinic,-634.5886,-3.2734,-0.0136,3D,,True,0.0,,-0.0136,-0.0088
108716,F6H4Mg1,4876cbf5c6,MgH4F6,"['H', 'F', 'Mg']",11,117.6824,2.0083,1,P1,1,triclinic,-52.2662,-2.3296,-0.0525,1D,7.5241,True,0.0,,-0.0525,-0.0352
108787,Br3Cl3N2Pr2Y2,4883d96ae4,Pr2Y2Br3N2Cl3,"['N', 'Cl', 'Br', 'Y', 'Pr']",12,333.03,4.157,m,Cm,8,monoclinic,-77.4471,-2.3186,-0.0069,2D,2.0056,True,0.0,,-0.0069,-0.004
108795,Ca5Hg3Np4O20,4885784ac4,Ca5Np4Hg3O20,"['O', 'Ca', 'Hg', 'Np']",32,493.6636,6.9634,1,P1,1,triclinic,-256.4223,-2.9604,-0.2519,intercalated ion,0.2198,True,0.0,,-0.2519,-0.0546
108797,F21Na1Rb2V6,488611b0e1,Rb2NaV6F21,"['F', 'Na', 'V', 'Rb']",30,492.5378,3.0293,2,C2,5,monoclinic,-194.5064,-3.2193,-0.0403,intercalated ion,2.1425,True,0.0,,-0.0403,-0.0069
108976,O24Sb3Sc11,48a46446c7,Sc11(SbO8)3,"['O', 'Sc', 'Sb']",38,446.47,4.6259,1,P1,1,triclinic,-330.5646,-3.415,-0.0592,3D,2.7831,True,0.0,,-0.0592,-0.0345
108999,Cl2Os2Pr4Si2,48a80ca421,Pr2SiOsCl,"['Si', 'Cl', 'Pr', 'Os']",10,255.1781,6.9705,6mm,P6_3mc,186,hexagonal,-67.4255,-1.1299,-0.0498,intercalated ion,,True,-0.0,,-0.0498,-0.0296
109057,Cl20Cs8La1Np3,48b074c608,Cs8LaNp3Cl20,"['Cl', 'Cs', 'La', 'Np']",32,1109.2285,3.9255,m,Pm,6,monoclinic,-164.3005,-2.3871,-0.0473,intercalated ion,,True,0.0,,-0.0473,-0.0427
109087,Cl8S32Si2,48b4bc8822,Si(S4Cl)4,"['Si', 'S', 'Cl']",42,1542.1825,1.4707,mm2,Fdd2,43,orthorhombic,-191.4822,-0.7971,-0.3823,0D,,True,0.0,,-0.3823,-0.3823
109088,F28Ge1Pt3Tb4,48b4c3c0b0,Tb4GePt3F28,"['F', 'Ge', 'Tb', 'Pt']",36,520.0536,5.829,1,P1,1,triclinic,-205.538,-3.0734,-0.0115,3D,2.4114,True,0.0,,-0.0115,-0.0115
109129,Ca1Ir1Na4O6,48bcd33e96,Na4CaIrO6,"['O', 'Na', 'Ca', 'Ir']",12,153.8315,4.5364,2,C2,5,monoclinic,-69.012,-1.9325,-0.1487,intercalated ion,0.2174,True,-0.0,,-0.1487,-0.1475
109155,Bi5Cl2Pr10Sn1,48c197de5c,Pr10SnBi5Cl2,"['Cl', 'Sn', 'Pr', 'Bi']",18,538.7697,8.1478,mm2,Amm2,38,orthorhombic,-95.4064,-1.1356,-0.0593,3D,0.001,True,0.0,,-0.0593,-0.0583
109173,Li3O16Rh8Zn1,48c4399212,Li3Zn(RhO2)8,"['Li', 'O', 'Zn', 'Rh']",28,320.9037,6.0308,-42m,P-4m2,115,tetragonal,-184.5137,-1.4088,-0.0224,intercalated ion,0.001,True,0.0,,-0.0224,-0.0031
109182,Be1Br12Hf4Ti2,48c5742d7c,Hf4Ti2BeBr12,"['Be', 'Ti', 'Br', 'Hf']",19,533.3901,5.5338,1,P1,1,triclinic,-107.673,-1.509,-0.06,3D,,True,-0.0,,-0.06,-0.0217
109183,Br6Pr11Si14Tm1,48c58f5e1c,Pr11Tm(Si7Br3)2,"['Si', 'Br', 'Pr', 'Tm']",32,802.1783,5.3646,mm2,Pmm2,25,orthorhombic,-178.6377,-1.1186,-0.0636,3D,0.0038,True,0.0,,-0.0636,-0.0171
109186,Br16Ir2Os2Te8,48c5f7382b,Te4IrOsBr8,"['Br', 'Te', 'Os', 'Ir']",28,1076.2518,4.7277,1,P1,1,triclinic,-111.7218,-0.7233,-0.0781,0D,0.9476,True,0.0,,-0.0781,-0.0173
109214,Cl30Mo3Pa3,48ca2ac924,PaMoCl10,"['Cl', 'Mo', 'Pa']",36,1243.5179,2.7302,1,P1,1,triclinic,-182.2449,-1.8252,-0.0009,0D,inf,True,0.0,,-0.0009,-0.0002