Unnamed: 0,Composition,MaterialId,Reduced Formula,Elements,NSites,Volume,Density,Point Group,Space Group,Space Group Number,Crystal System,Corrected Energy,Formation Energy Per Atom,Decomposition Energy Per Atom,Dimensionality Cheon,Bandgap,Is Train,Decomposition Energy Per Atom All,Decomposition Energy Per Atom Relative,Decomposition Energy Per Atom MP,Decomposition Energy Per Atom MP OQMD
70300,Ca3O12Pt2Sr3,2ee1f4a007,Sr3Ca3(PtO6)2,"['O', 'Ca', 'Sr', 'Pt']",20,277.186,5.7826,1,P1,1,triclinic,-129.8407,-2.3619,-0.0496,intercalated ion,,True,0.0,,-0.0496,-0.0306
70323,O18Tb6Te3,2ee65e469b,Tb2TeO6,"['O', 'Te', 'Tb']",27,384.4997,7.015,32,P321,150,trigonal,-207.5562,-3.0095,-0.1994,3D,3.0604,True,0.0,,-0.1994,-0.1994
70329,Li12O48Pr6Sm6W8,2ee73d0aec,Li6Pr3Sm3(WO6)4,"['Li', 'O', 'Pr', 'Sm', 'W']",80,1000.5672,6.7539,222,F222,22,orthorhombic,-659.3377,-2.9783,-0.0368,intercalated ion,,True,0.0,,-0.0368,-0.0326
70331,Br10Cl10U4,2ee7b33e42,U2(BrCl)5,"['Cl', 'Br', 'U']",24,997.5015,3.5053,1,P1,1,triclinic,-126.0221,-1.9167,-0.0011,0D,0.2232,True,0.0,,-0.0011,-0.0009
70345,Nb1O12Pr5Ti1,2eea3a460c,Pr5TiNbO12,"['O', 'Ti', 'Nb', 'Pr']",19,290.6962,5.9254,2,C2,5,monoclinic,-171.0909,-3.6744,-0.001,3D,2.6641,True,0.0,,-0.001,-0.001
70366,F28W1Y4Zr3,2eef756433,Y4Zr3WF28,"['F', 'Y', 'Zr', 'W']",36,562.9689,3.9675,1,P1,1,triclinic,-263.7874,-4.05,-0.0296,3D,,True,0.0,,-0.0296,-0.0265
70383,F24Np3Ru1,2ef28b1e65,Np3RuF24,"['F', 'Ru', 'Np']",28,518.5365,4.0607,m,Pm,6,monoclinic,-180.5043,-3.0897,-0.0113,0D,0.1874,True,0.0,,-0.0113,-0.0094
70389,Cs3Nb6O24P3,2ef3d2174e,CsNb2PO8,"['O', 'P', 'Nb', 'Cs']",36,565.2299,4.2101,3,R3,146,trigonal,-303.5818,-2.9249,-0.0083,3D,2.2579,True,0.0,,-0.0083,-0.0077
70472,Li12O48Sm3W8Y9,2f01de7407,Li12Sm3Y9(WO6)8,"['Li', 'O', 'Y', 'Sm', 'W']",80,953.6447,6.2219,2,C2,5,monoclinic,-676.16,-2.9966,-0.011,intercalated ion,,True,0.0,,-0.011,-0.0068
70482,Au3Br12La12Ru1,2f02d09810,La12Ru(AuBr4)3,"['Br', 'Ru', 'La', 'Au']",28,977.2324,5.6375,32,R32,155,trigonal,-143.8465,-1.6384,-0.014,3D,0.0035,True,0.0,,-0.014,-0.0126
70510,Ac3Au4Ho1O12,2f081b9415,Ac3Ho(AuO3)4,"['O', 'Ho', 'Au', 'Ac']",20,308.9257,9.814,m,Pm,6,monoclinic,-134.937,-2.276,-0.1406,3D,,True,0.0,,-0.1406,-0.0455
70562,Lu2O24Pr4V2W4,2f120ca5bc,Pr2LuV(WO6)2,"['O', 'V', 'Pr', 'Lu', 'W']",36,478.6819,7.4056,m,Pc,7,monoclinic,-327.0525,-3.0593,-0.0188,3D,,True,0.0,,-0.0188,-0.0072
70568,Cd1K8Nb4O40P8V3,2f126f0884,K8Nb4V3Cd(PO5)8,"['O', 'P', 'K', 'V', 'Nb', 'Cd']",64,943.6619,3.2333,1,P1,1,triclinic,-495.6003,-2.7643,-0.0144,intercalated ion,,True,0.0,,-0.0144,-0.0118
70679,Bi6F24K6,2f22dfe531,KBiF4,"['F', 'K', 'Bi']",36,655.0076,4.9294,3,P3_1,144,trigonal,-180.5216,-2.9068,-0.011,intercalated ion,,True,0.0,,-0.011,-0.0073
70696,Bi2F16Rb6,2f2572634d,Rb3BiF8,"['F', 'Rb', 'Bi']",24,472.4061,4.3402,6mm,P6_3mc,186,hexagonal,-109.1528,-2.7044,-0.0582,intercalated ion,,True,0.0,,-0.0582,-0.0582
70697,Cl6Nb1Tl1,2f25aa88e7,NbTlCl6,"['Cl', 'Nb', 'Tl']",8,284.8832,2.9728,3m,R3m,160,trigonal,-36.8481,-1.6617,-0.0099,intercalated ion,,True,0.0,,-0.0099,-0.0099
70727,Cl6I10Th4,2f2b62f8bb,Th2I5Cl3,"['Cl', 'I', 'Th']",20,871.7946,4.5903,2,P2_1,4,monoclinic,-95.2123,-1.9613,-0.0039,2D,2.4263,False,0.0,,-0.0039,-0.0036
70729,O19Os6Pb2Pr2,2f2b99dfaa,Pr2Os6Pb2O19,"['O', 'Pr', 'Os', 'Pb']",29,391.0836,9.0932,2,C2,5,monoclinic,-233.6142,-1.9052,-0.0794,3D,0.0031,True,0.0,,-0.0794,-0.0068
70757,As1F6O2,2f31051610,As(OF3)2,"['O', 'F', 'As']",9,133.8111,2.7414,1,P1,1,triclinic,-42.0581,-1.7816,-0.1046,0D,0.8182,True,0.0,,-0.1046,-0.098
70849,Cl1I10Ta1,2f411563fc,TaI10Cl,"['Cl', 'I', 'Ta']",12,653.0772,3.777,1,P1,1,triclinic,-37.1393,-0.6827,-0.189,1D,1.0791,True,-0.0,,-0.189,-0.189
70858,Ho3Lu4O16Sr4Tm1,2f4295cd26,Sr4Ho3TmLu4O16,"['O', 'Sr', 'Ho', 'Tm', 'Lu']",28,400.2084,8.1742,m,Pm,6,monoclinic,-228.7523,-3.8043,-0.0002,intercalated ion,3.7831,True,0.0,,-0.0002,-0.0002
70865,Ca12F8Nb2O48Sb12Ta2,2f435358ae,Ca6TaNbSb6(O6F)4,"['O', 'F', 'Ca', 'Nb', 'Sb', 'Ta']",84,1153.9606,4.9066,2,C2,5,monoclinic,-610.1697,-2.8553,-0.006,2D,,True,0.0,,-0.006,-0.006
70891,Lu1O24P6Ta3,2f47316503,LuTa3(PO4)6,"['O', 'P', 'Lu', 'Ta']",34,511.411,4.1809,3,R3,146,trigonal,-296.7425,-3.1005,-0.0163,3D,3.6835,True,0.0,,-0.0163,-0.0163
70943,F14Gd2Pd2,2f5053c34a,GdPdF7,"['F', 'Pd', 'Gd']",18,306.2628,4.3013,2,P2_1,4,monoclinic,-115.7982,-2.8047,-0.1463,3D,,True,0.0,,-0.1463,-0.021
70969,F8O4Rb2Re2,2f5456c4e9,RbRe(OF2)2,"['O', 'F', 'Rb', 'Re']",16,346.0817,3.6434,-42m,P-42_1m,113,tetragonal,-104.2094,-2.6422,-0.1228,intercalated ion,3.1709,True,0.0,,-0.1228,-0.1228
70988,O26Sb4Se8,2f56aaa549,Sb2Se4O13,"['O', 'Se', 'Sb']",38,566.089,4.5018,m,Pc,7,monoclinic,-225.543,-1.3793,-0.0057,3D,1.9655,True,0.0,,-0.0057,-0.0057
71016,Ba4Nb4O16Tl4,2f5cf76aa4,BaNbTlO4,"['O', 'Nb', 'Ba', 'Tl']",28,547.3699,6.0505,222,P2_12_12_1,19,orthorhombic,-213.7927,-2.7535,-0.0183,intercalated ion,,True,0.0,,-0.0183,-0.006
71098,F14Ge2Lu2,2f6d55723b,LuGeF7,"['F', 'Ge', 'Lu']",18,238.3676,5.3027,2,P2_1,4,monoclinic,-108.3179,-3.515,-0.0412,3D,,True,0.0,,-0.0412,-0.0158
71103,Cl2Pr2Sn6Th8,2f6e97cd57,PrTh4Sn3Cl,"['Cl', 'Sn', 'Pr', 'Th']",18,517.4866,9.374,mm2,Ama2,40,orthorhombic,-112.8475,-0.9011,-0.0281,3D,0.0012,True,0.0,,-0.0281,-0.0253
71117,Br12Re3Tc9Te12,2f70cbb432,ReTc3(TeBr)4,"['Br', 'Tc', 'Te', 'Re']",36,1200.59,5.4365,1,P1,1,triclinic,-213.216,-0.7021,-0.0845,2D,0.8936,True,0.0,,-0.0845,-0.0709
71123,Bi1F28Pd4Pr3,2f71bd8875,Pr3BiPd4F28,"['F', 'Pd', 'Pr', 'Bi']",36,565.4788,4.6671,1,P1,1,triclinic,-188.6801,-2.6724,-0.0603,3D,,True,0.0,,-0.0603,-0.0603
71175,Bi8In2O24Zn2,2f7c71ee8a,ZnIn(BiO3)4,"['O', 'Zn', 'In', 'Bi']",36,506.8983,7.9155,mm2,Pmn2_1,31,orthorhombic,-210.8858,-1.472,-0.0219,3D,0.0089,False,0.0,,-0.0219,-0.0155
71255,Br6Rh1Tl1,2f89ecc784,TlRhBr6,"['Br', 'Rh', 'Tl']",8,279.8821,4.6676,2,C2,5,monoclinic,-26.6886,-0.8926,-0.0725,2D,,False,0.0,,-0.0725,-0.0248
71257,Bi3La1O8Pr7,2f8a354da2,LaPr7Bi3O8,"['O', 'La', 'Pr', 'Bi']",19,430.3606,7.2547,m,Cm,8,monoclinic,-145.4382,-2.9359,-0.0053,3D,0.1098,True,0.0,,-0.0053,-0.005
71283,Cl8Mg1,2f9085eb2c,MgCl8,"['Mg', 'Cl']",9,284.7326,1.7958,1,P1,1,triclinic,-26.3901,-1.1113,-0.3561,intercalated molecule,,True,0.0,,-0.3561,-0.2662
71291,Gd7Li12O48Sm5Te8,2f92a629cb,Li12Sm5Gd7(TeO6)8,"['Li', 'O', 'Te', 'Sm', 'Gd']",80,990.2283,6.2459,1,P1,1,triclinic,-627.6361,-2.7494,-0.043,3D,,False,0.0,,-0.043,-0.0172
71299,Np1O12Tb1Y5,2f938cf3bf,TbY5NpO12,"['O', 'Y', 'Tb', 'Np']",19,274.7982,6.2388,1,P1,1,triclinic,-183.5403,-3.9079,-0.1354,3D,0.8042,True,0.0,,-0.1354,-0.1338
71304,Cl30Nb2U4,2f94706f06,U2NbCl15,"['Cl', 'Nb', 'U']",36,1336.1281,2.736,1,P1,1,triclinic,-193.0869,-2.0073,-0.0026,0D,inf,True,0.0,,-0.0026,-0.0022
71347,Br12Ga2P1Pr12Si1,2f9a98e3ec,Pr12Ga2SiPBr12,"['Si', 'P', 'Ga', 'Br', 'Pr']",28,898.9529,5.2613,2,C2,5,monoclinic,-141.1779,-1.6882,-0.0743,3D,0.002,True,0.0,,-0.0743,-0.0357
71372,Ba4Ga4O14Si2,2f9f512938,Ba2Ga2SiO7,"['O', 'Si', 'Ga', 'Ba']",24,385.0988,4.7792,2,P2_1,4,monoclinic,-170.8377,-2.9553,-0.0121,intercalated ion,3.1938,False,0.0,,-0.0121,-0.0104
71391,Ir2O24Pr8Te1W1,2fa1873cfe,Pr8TeIr2WO24,"['O', 'Te', 'Pr', 'W', 'Ir']",36,537.2402,6.8219,1,P1,1,triclinic,-293.9605,-2.8662,-0.0527,3D,0.4161,False,0.0,,-0.0527,-0.047
71467,Au3K1O4Rb4,2fac98237a,KRb4Au3O4,"['O', 'K', 'Rb', 'Au']",12,327.8444,5.2467,mm2,Fmm2,42,orthorhombic,-48.5078,-1.1551,-0.0562,intercalated ion,1.5689,True,0.0,,-0.0562,-0.0046
71468,Ge4Ho1O20Sm7,2fad357cef,Sm7Ho(GeO5)4,"['O', 'Ge', 'Sm', 'Ho']",32,488.7547,6.2106,1,P1,1,triclinic,-260.2938,-3.2884,-0.0041,3D,3.9743,True,0.0,,-0.0041,-0.0015
71488,As1Br2Pu1Tb1,2fb0b823bc,TbPuAsBr2,"['As', 'Br', 'Tb', 'Pu']",5,161.8612,6.5417,3m,P3m1,156,trigonal,-35.7014,-1.7733,-0.0836,2D,0.0096,True,0.0,,-0.0836,-0.0141
71557,B1Br20Cs7Rb1Y6,2fc076e515,Cs7RbY6BBr20,"['B', 'Br', 'Rb', 'Y', 'Cs']",35,1418.2944,3.6975,3m,R3m,160,trigonal,-158.1984,-2.0781,-0.0104,intercalated ion,0.1243,True,0.0,,-0.0104,-0.0104
71559,F2Ga2K12Te8,2fc0a43c86,K6GaTe4F,"['F', 'K', 'Ga', 'Te']",24,862.4627,3.2104,6mm,P6_3mc,186,hexagonal,-82.0588,-1.4045,-0.0079,intercalated ion,1.852,False,0.0,,-0.0079,-0.0037
71598,Ca12O56Sr8V14,2fc6b1c107,Sr4Ca6V7O28,"['O', 'Ca', 'V', 'Sr']",90,1412.1278,3.282,m,Cc,9,monoclinic,-709.4925,-2.9739,-0.0053,intercalated ion,,True,0.0,,-0.0053,-0.0029
71610,Br18Ce1Np1P2,2fc8768960,CeNp(PBr9)2,"['P', 'Br', 'Ce', 'Np']",22,935.9774,3.3306,1,P1,1,triclinic,-87.3195,-1.2794,-0.0636,0D,,True,0.0,,-0.0636,-0.0126
71615,Ba4Ir3O16W1,2fca1ad8c1,Ba4Ir3WO16,"['O', 'Ba', 'W', 'Ir']",24,419.848,6.1928,2,P2,3,monoclinic,-177.4334,-2.1299,-0.0754,intercalated ion,0.321,True,0.0,,-0.0754,-0.075
71697,F18La1Np4Pr1,2fd8457b38,LaPrNp4F18,"['F', 'La', 'Pr', 'Np']",24,328.1453,7.9437,1,P1,1,triclinic,-194.0614,-4.0894,-0.0733,3D,0.0143,True,0.0,,-0.0733,-0.0721
71722,Cl24Ir2Se4,2fdb8648b3,Ir(SeCl6)2,"['Cl', 'Se', 'Ir']",30,890.4522,2.8926,mm2,Fdd2,43,orthorhombic,-101.6483,-0.8541,-0.0419,0D,0.0015,True,0.0,,-0.0419,-0.0025
71750,B2Cl15Pr9Y1,2fe0868afe,Pr9YB2Cl15,"['B', 'Cl', 'Y', 'Pr']",27,806.3312,3.9344,1,P1,1,triclinic,-148.4504,-2.1433,-0.0346,3D,0.0017,True,-0.0,,-0.0346,-0.0314
71811,Br18Cs2Nb4Pb1Ta2,2fe9dc323b,Cs2Ta2Nb4PbBr18,"['Br', 'Nb', 'Cs', 'Ta', 'Pb']",27,848.8647,5.1737,1,P1,1,triclinic,-137.4995,-1.4226,-0.0235,intercalated ion,1.1279,True,0.0,,-0.0235,-0.0234
71900,Nb1O4P12Sr12Ta3,2ff78a034d,Sr12Ta3Nb(P3O)4,"['O', 'P', 'Sr', 'Nb', 'Ta']",32,853.582,4.1298,m,Pm,6,monoclinic,-201.1608,-1.5769,-0.0481,intercalated ion,,True,0.0,,-0.0481,-0.0462
71931,K2O12Si1Te3,2ffbbe8c61,K2Si(TeO4)3,"['O', 'Si', 'K', 'Te']",18,247.098,4.5769,2,C2,5,monoclinic,-110.5101,-1.8921,-0.0365,intercalated ion,0.7657,True,0.0,,-0.0365,-0.0285
71934,F20N2Ru1Sb1,2ffc898627,SbRu(NF10)2,"['N', 'F', 'Ru', 'Sb']",24,374.3541,2.7981,1,P1,1,triclinic,-106.5366,-1.5929,-0.2881,0D,1.3268,True,-0.0,,-0.2881,-0.1024
71979,Eu2Ho3O14Ta2Tb1,3002da0d7f,TbEu2Ho3Ta2O14,"['O', 'Eu', 'Tb', 'Ho', 'Ta']",22,301.015,8.5148,m,Pm,6,monoclinic,-213.8061,-3.7206,-0.0352,3D,0.0002,True,0.0,,-0.0352,-0.0146
71984,Al1Au1Br14Se2,3003b10910,AlAu(SeBr7)2,"['Al', 'Se', 'Br', 'Au']",18,784.5768,3.1758,1,P1,1,triclinic,-52.3366,-0.856,-0.0566,0D,1.4102,True,0.0,,-0.0566,-0.0044
71991,Au9O18Pt3Zn6,3004a77a61,Zn2Pt(AuO2)3,"['O', 'Zn', 'Pt', 'Au']",36,471.0547,10.7108,32,P3_112,151,trigonal,-180.3277,-1.0008,-0.04,3D,,True,0.0,,-0.04,-0.0391
72042,Cl2In4Pb2Y10,300cbea64f,Y5In2PbCl,"['Cl', 'Y', 'In', 'Pb']",18,487.2971,6.2484,mm2,Amm2,38,orthorhombic,-102.1847,-0.855,-0.0358,3D,0.0045,True,0.0,,-0.0358,-0.0345
72052,Au4O12Sm3Y1,300e8ebaf9,Sm3Y(AuO3)4,"['O', 'Y', 'Sm', 'Au']",20,288.0832,8.7605,m,Pm,6,monoclinic,-138.1214,-2.2514,-0.0413,3D,2.0179,True,-0.0,,-0.0413,-0.02
72090,Bi2La3O14Tm3,3015adb24a,La3Tm3(BiO7)2,"['O', 'La', 'Tm', 'Bi']",22,330.7383,7.8598,1,P1,1,triclinic,-176.0934,-3.2185,-0.0845,3D,,True,0.0,,-0.0845,-0.0488
72177,Ir2O14Sn15Tc1,3022a5c21b,TcSn15(IrO7)2,"['O', 'Tc', 'Sn', 'Ir']",32,573.423,7.2022,m,Cm,8,monoclinic,-205.0694,-1.488,-0.0177,3D,0.0025,True,0.0,,-0.0177,-0.0177
72193,Cl16Na1Rb3,30261588fe,Rb3NaCl16,"['Na', 'Cl', 'Rb']",20,662.5705,2.1219,1,P1,1,triclinic,-59.2182,-1.2689,-0.3112,intercalated ion,,True,0.0,,-0.3112,-0.0419
72208,Li12O48Tb1W8Y11,302969c2e7,Li12TbY11(WO6)8,"['Li', 'O', 'Y', 'Tb', 'W']",80,944.4606,6.0813,222,F222,22,orthorhombic,-679.953,-3.0014,-0.011,intercalated ion,3.737,True,0.0,,-0.011,-0.0068
72281,O24Se6Sn3,3035e8d4f3,Sn(SeO4)2,"['O', 'Se', 'Sn']",33,537.5212,3.75,3,R3,146,trigonal,-193.5236,-1.2657,-0.0273,3D,,True,0.0,,-0.0273,-0.0248
72283,B4Cl12Tb3Y9,30362b90d8,Tb3Y9(BCl3)4,"['B', 'Cl', 'Y', 'Tb']",28,655.6996,4.4207,2,C2,5,monoclinic,-170.825,-1.7794,-0.0001,3D,0.0106,True,0.0,,-0.0001,-0.0001
72289,Ba3O12Rb1,30378358d0,RbBa3O12,"['O', 'Rb', 'Ba']",16,263.1873,4.3499,1,P1,1,triclinic,-89.7535,-1.4775,-0.0709,intercalated ion,0.002,True,0.0,,-0.0709,-0.0688
72314,Eu1O24Sm2Tb5W4,303cd88a49,Tb5Sm2Eu(WO6)4,"['O', 'Sm', 'Eu', 'Tb', 'W']",36,476.7461,8.2432,2,P2,3,monoclinic,-330.3971,-3.2476,-0.0125,3D,0.0014,True,0.0,,-0.0125,-0.0061
72319,Ba8Nb7O40Ta1Te4,303daa3ee8,Ba8TaNb7(TeO10)4,"['O', 'Nb', 'Te', 'Ba', 'Ta']",60,942.4318,5.4274,1,P1,1,triclinic,-480.9597,-2.8758,-0.0029,intercalated ion,,True,0.0,,-0.0029,-0.0012
72344,Ba2Ga1Ir6O18,304155e2b7,Ba2Ga(IrO3)6,"['O', 'Ga', 'Ba', 'Ir']",27,339.9588,8.7221,1,P1,1,triclinic,-194.2483,-1.6773,-0.0445,intercalated ion,0.0019,True,-0.0,,-0.0445,-0.0391
72359,F18I1Se2,304434c8e6,Se2IF18,"['F', 'Se', 'I']",21,397.838,2.6162,m,Cm,8,monoclinic,-83.4619,-1.9304,-0.2979,0D,0.4345,False,0.0,,-0.2979,-0.0102
72371,Ga1O18Sc5Te3,3045c169f1,Sc5Ga(TeO6)3,"['O', 'Sc', 'Ga', 'Te']",27,323.6597,4.9524,2,C2,5,monoclinic,-207.728,-2.7609,-0.0007,3D,3.0335,True,0.0,,-0.0007,-0.0007
72375,Al4F12K7O16S4Tl1,30464e3b8c,K7Al4TlS4(O4F3)4,"['O', 'F', 'Al', 'S', 'K', 'Tl']",44,656.1625,3.0323,1,P1,1,triclinic,-268.463,-2.834,-0.0014,intercalated ion,,True,0.0,,-0.0014,-0.0012
72376,Br8Cu1Ga2Li1,3046c900c3,LiGa2CuBr8,"['Li', 'Cu', 'Ga', 'Br']",12,389.899,3.6165,-4,P-4,81,tetragonal,-40.1444,-1.2487,-0.0043,intercalated ion,1.8714,False,-0.0,,-0.0043,-0.0021
72401,Eu1Na1O10Se4,304b7a269c,NaEu(Se2O5)2,"['O', 'Na', 'Se', 'Eu']",16,268.7071,4.0217,2,C2,5,monoclinic,-102.0961,-1.6884,-0.0599,intercalated ion,,True,0.0,,-0.0599,-0.0535
72404,Na2O14P4Rh2,304c018498,NaP2RhO7,"['O', 'Na', 'P', 'Rh']",22,274.7605,3.6242,2,P2_1,4,monoclinic,-158.5291,-2.2832,-0.0081,intercalated ion,1.3806,True,0.0,,-0.0081,-0.0081
72433,Br2Cs12Se8Tl2,3050786a91,Cs6TlSe4Br,"['Se', 'Br', 'Cs', 'Tl']",24,1015.8608,4.5689,6mm,P6_3mc,186,hexagonal,-78.2326,-1.3135,-0.0783,intercalated ion,,True,-0.0,,-0.0783,-0.0584
72441,C4Cl17Pr3Sm7,3050ff636d,Pr3Sm7C4Cl17,"['C', 'Cl', 'Pr', 'Sm']",31,883.1854,3.9972,1,P1,1,triclinic,-182.6677,-2.1601,-0.118,3D,,True,0.0,,-0.118,-0.0311
72477,F6Ga4Li2O4,3055b37151,LiGa2O2F3,"['Li', 'O', 'F', 'Ga']",16,202.5436,3.8595,mm2,Pmc2_1,26,orthorhombic,-91.0777,-2.7429,-0.0054,intercalated ion,3.462,True,0.0,,-0.0054,-0.0049
72503,O2Pd1Pt1Ti6,3059fadacc,Ti6PdPtO2,"['O', 'Ti', 'Pd', 'Pt']",10,138.3029,7.4525,-42m,I-42m,121,tetragonal,-84.027,-1.5507,-0.0165,3D,0.0009,False,0.0,,-0.0165,-0.0109
72519,Br1Cl3H2Np2,305b075bfa,Np2H2BrCl3,"['H', 'Cl', 'Br', 'Np']",8,192.8701,5.702,3m,P3m1,156,trigonal,-52.4342,-1.5713,-0.0307,intercalated ion,0.0063,True,0.0,,-0.0307,-0.0247
72557,Eu7O18Sr1Ta4,3063590bd2,SrEu7Ta4O18,"['O', 'Sr', 'Eu', 'Ta']",30,469.5456,7.6499,3,P3,143,trigonal,-312.2589,-3.401,-0.016,intercalated ion,inf,True,0.0,,-0.016,-0.004
72621,Cl10Gd5Rh1Y1,306b923a7d,Gd5YRhCl10,"['Cl', 'Y', 'Rh', 'Gd']",17,511.9967,4.3219,1,P1,1,triclinic,-141.6342,-2.2845,-0.0421,3D,,True,0.0,,-0.0421,-0.0248
72628,Ag1Cl6Rh2Te11,306c4a0520,AgTe11(RhCl3)2,"['Cl', 'Rh', 'Ag', 'Te']",20,613.5896,5.2231,1,P1,1,triclinic,-78.4098,-0.7591,-0.1449,1D,0.0161,True,-0.0,,-0.1449,-0.0379
72641,Gd5Nb1O12Tb1,306d4b0980,TbGd5NbO12,"['O', 'Nb', 'Gd', 'Tb']",19,271.6934,7.518,1,P1,1,triclinic,-215.0233,-3.7122,-0.0222,3D,,True,0.0,,-0.0222,-0.0128
72669,C2O2Tm3Y1,30727e9d01,YTm3(CO)2,"['C', 'O', 'Y', 'Tm']",8,117.3608,9.2213,mm2,Imm2,44,orthorhombic,-64.0564,-1.9766,-0.0758,3D,0.0026,True,0.0,,-0.0758,-0.075
72706,Al1Br24Cs6Tl5,307a50f398,Cs6AlTl5Br24,"['Al', 'Br', 'Cs', 'Tl']",36,1624.0781,3.8485,1,P1,1,triclinic,-111.6108,-1.4277,-0.0045,intercalated ion,,True,0.0,,-0.0045,-0.0041
72722,Ca20O48P7Si4V1,307d4caac2,Ca20VSi4P7O48,"['O', 'Si', 'P', 'Ca', 'V']",80,1089.5099,2.9715,1,P1,1,triclinic,-615.2131,-3.3615,-0.0005,intercalated ion,3.5166,True,-0.0,,-0.0005,-0.0
72728,Br12Pt3Ru1Sm12,307e4c99a1,Sm12Ru(PtBr4)3,"['Br', 'Ru', 'Sm', 'Pt']",28,856.0986,6.6908,32,R32,155,trigonal,-149.4956,-1.6337,-0.0204,3D,0.0022,False,0.0,,-0.0204,-0.0204
72732,F28Ho1Lu3Zr4,307f683ae4,HoLu3Zr4F28,"['F', 'Zr', 'Ho', 'Lu']",36,547.3748,4.8134,1,P1,1,triclinic,-258.4871,-4.2397,-0.0059,3D,5.9915,True,0.0,,-0.0059,-0.0033
72740,O13Os3Pb4Pt1,30807444c9,Os3PtPb4O13,"['O', 'Os', 'Pt', 'Pb']",21,286.4386,10.4498,3m,R3m,160,trigonal,-149.6075,-1.461,-0.0645,3D,0.015,False,0.0,,-0.0645,-0.0033
72765,Br16Ru1Sc12Tc2,3084c505ae,Sc12Tc2RuBr16,"['Sc', 'Br', 'Tc', 'Ru']",31,1052.9127,3.3356,1,P1,1,triclinic,-181.6709,-1.5966,-0.0608,intercalated ion,,True,0.0,,-0.0608,-0.0078
72815,Hf13O6Re3Ta5Zr5,308da5ca25,Hf13Zr5Ta5(ReO2)3,"['O', 'Zr', 'Hf', 'Ta', 'Re']",32,556.119,12.9466,1,P1,1,triclinic,-338.8272,-1.2605,-0.0436,3D,0.0053,True,0.0,,-0.0436,-0.0104
72938,As8Ho3O18Tb1,309f6d3c86,TbHo3(As4O9)2,"['O', 'As', 'Tb', 'Ho']",30,462.0571,5.5383,1,P1,1,triclinic,-219.3013,-2.4861,-0.024,3D,3.2307,False,0.0,,-0.024,-0.0239
72955,Bi2Ca1Cd3Ho1In1O12,30a265cfad,CaHoCd3In(BiO6)2,"['O', 'Ca', 'Cd', 'In', 'Ho', 'Bi']",20,298.8593,7.0398,1,P1,1,triclinic,-119.4503,-2.0093,-0.0488,intercalated ion,,True,0.0,,-0.0488,-0.0221
73017,Bi9O10Sn1Tb18,30ae4a12cf,Tb18SnBi9O10,"['O', 'Sn', 'Tb', 'Bi']",38,901.3652,9.2484,1,P1,1,triclinic,-256.5375,-2.2268,-0.0126,3D,,True,0.0,,-0.0126,-0.0122
73022,Ce1Hg1O18Ta6,30af85d933,CeTa6HgO18,"['O', 'Ce', 'Ta', 'Hg']",26,343.0102,8.2995,m,Pm,6,monoclinic,-250.532,-3.234,-0.0369,3D,0.0013,True,0.0,,-0.0369,-0.0309
73027,As6Ga1Nb3O24,30b0f23e7b,Nb3Ga(AsO4)6,"['O', 'Ga', 'As', 'Nb']",34,540.4339,3.6317,3,R3,146,trigonal,-252.1275,-2.1203,-0.0301,3D,2.9816,True,0.0,,-0.0301,-0.0128
73029,Br16Pa1Sc11Tc3,30b21bc5d2,Sc11PaTc3Br16,"['Sc', 'Br', 'Tc', 'Pa']",31,1026.3213,3.7181,1,P1,1,triclinic,-185.0893,-1.5692,-0.086,1D,0.0038,True,0.0,,-0.086,-0.0019
73055,O4Pd4Rh4Zr16,30b77a419e,Zr4PdRhO,"['O', 'Zr', 'Rh', 'Pd']",28,493.3876,7.9458,3m,R3m,160,trigonal,-243.2818,-1.3054,-0.0225,3D,0.0029,True,0.0,,-0.0225,-0.0089
73061,Au1Gd4O12Tm2,30b8103a79,Gd4Tm2AuO12,"['O', 'Gd', 'Tm', 'Au']",19,266.4361,8.4501,1,P1,1,triclinic,-189.7253,-3.2537,-0.0372,3D,0.0072,True,0.0,,-0.0372,-0.0297
73114,Cs2Ge4Li2O10,30c20cf477,CsLiGe2O5,"['Li', 'O', 'Ge', 'Cs']",18,292.574,4.1446,2,P2_1,4,monoclinic,-113.0074,-2.1904,-0.0387,intercalated ion,2.9901,True,-0.0,,-0.0387,-0.0387
73116,Bi5Br2Ce1Pr9Sn1,30c2810d3e,CePr9SnBi5Br2,"['Br', 'Sn', 'Ce', 'Pr', 'Bi']",18,536.4336,8.456,1,P1,1,triclinic,-94.5646,-1.0483,-0.0131,3D,0.0059,True,0.0,,-0.0131,-0.009
73120,Al1Ga5La6O18,30c2f3fa4a,La6AlGa5O18,"['O', 'Al', 'Ga', 'La']",30,464.3008,5.354,mm2,Amm2,38,orthorhombic,-234.6036,-3.2346,-0.0049,3D,3.7265,True,0.0,,-0.0049,-0.0049
73154,Al12O48Sc8Tb8Y4,30c8eb53b5,Tb2YSc2Al3O12,"['O', 'Al', 'Sc', 'Y', 'Tb']",80,966.4952,5.2891,2,C2,5,monoclinic,-701.36,-3.8164,-0.0102,inf,inf,True,0.0,,-0.0102,-0.0102
73185,F30Hf3Pt1Y2Zr2,30cec4cf08,Y2Hf3Zr2PtF30,"['F', 'Y', 'Zr', 'Hf', 'Pt']",38,512.356,5.3825,2,C2,5,monoclinic,-269.7321,-3.8531,-0.0057,3D,2.5105,True,0.0,,-0.0057,-0.0051
73191,Ce5Gd1La1O13,30d07e7bda,LaCe5GdO13,"['O', 'La', 'Ce', 'Gd']",20,291.2698,6.8682,3m,R3m,160,trigonal,-192.0767,-3.9538,-0.0356,3D,0.2119,True,0.0,,-0.0356,-0.0339
73214,Lu3O20Si4Tb5,30d6248a16,Tb5Lu3(SiO5)4,"['O', 'Si', 'Tb', 'Lu']",32,430.5852,6.756,1,P1,1,triclinic,-279.8944,-3.8281,-0.013,3D,4.775,True,0.0,,-0.013,-0.0002
73281,Ca1Cd1O12Ru2Sr6,30e19d673a,Sr6CaCd(RuO6)2,"['O', 'Ca', 'Sr', 'Ru', 'Cd']",22,322.7416,5.5173,32,R32,155,trigonal,-147.8911,-2.5864,-0.0242,intercalated ion,0.0002,True,0.0,,-0.0242,-0.0231
73290,Cs4Ge4O16Sc4,30e3e7f724,CsScGeO4,"['O', 'Sc', 'Ge', 'Cs']",28,584.9907,3.5709,mm2,Pna2_1,33,orthorhombic,-204.0961,-2.7688,-0.0055,intercalated ion,3.909,True,0.0,,-0.0055,-0.0055
73314,Br12Hf2Se1,30e850e2f7,Hf2SeBr12,"['Se', 'Br', 'Hf']",15,634.9371,3.6478,m,Cm,8,monoclinic,-64.9595,-1.4604,-0.0575,0D,1.7739,True,0.0,,-0.0575,-0.0015
73385,Cl3S24U1,30f5a59eb5,U(S8Cl)3,"['S', 'Cl', 'U']",28,809.2419,2.2858,m,Cm,8,monoclinic,-135.7903,-0.7028,-0.3434,0D,,True,0.0,,-0.3434,-0.3363
73420,Br8Os1Re1Y8,30fa18642a,Y8ReOsBr8,"['Br', 'Y', 'Re', 'Os']",18,534.2375,5.3677,2,C2,5,monoclinic,-115.2899,-1.4884,-0.0189,3D,0.7577,True,0.0,,-0.0189,-0.0179
73432,Ag1Ir3O24Pr8,30fb069583,Pr8Ag(IrO8)3,"['O', 'Ag', 'Pr', 'Ir']",36,536.0241,6.8022,1,P1,1,triclinic,-277.3994,-2.5293,-0.0434,3D,0.0953,True,0.0,,-0.0434,-0.0386