Unnamed: 0,Composition,MaterialId,Reduced Formula,Elements,NSites,Volume,Density,Point Group,Space Group,Space Group Number,Crystal System,Corrected Energy,Formation Energy Per Atom,Decomposition Energy Per Atom,Dimensionality Cheon,Bandgap,Is Train,Decomposition Energy Per Atom All,Decomposition Energy Per Atom Relative,Decomposition Energy Per Atom MP,Decomposition Energy Per Atom MP OQMD
91630,Eu1O24Sm1Tm6W4,3d1d50d3f2,SmEuTm6(WO6)4,"['O', 'Sm', 'Eu', 'Tm', 'W']",36,458.7865,8.8143,2,P2,3,monoclinic,-330.4834,-3.2787,-0.0109,3D,0.5921,True,0.0,,-0.0109,-0.0043
91660,Gd1O18Sm1Ta5W1,3d223925b9,SmGdTa5WO18,"['O', 'Sm', 'Gd', 'Ta', 'W']",26,338.1107,8.2714,1,P1,1,triclinic,-267.2342,-3.3511,-0.0063,3D,2.0855,True,0.0,,-0.0063,-0.0029
91664,F28Hf3Pt1Tb3Tm1,3d22d4f0b6,Tb3TmHf3PtF28,"['F', 'Tb', 'Tm', 'Hf', 'Pt']",36,549.2565,5.769,1,P1,1,triclinic,-251.1135,-3.9797,-0.0046,3D,,False,0.0,,-0.0046,-0.0034
91666,La4O14Sm1Ta2Y1,3d232aad6a,La4SmYTa2O14,"['O', 'Y', 'La', 'Sm', 'Ta']",22,328.7769,6.9738,m,Pm,6,monoclinic,-208.2256,-3.8323,-0.0086,3D,,True,0.0,,-0.0086,-0.0086
91667,Eu1O10Pb1Ti4,3d232ece9e,EuTi4PbO10,"['O', 'Ti', 'Eu', 'Pb']",16,233.5004,5.0536,mm2,Pmm2,25,orthorhombic,-147.9343,-3.3043,-0.024,3D,0.0012,True,0.0,,-0.024,-0.0182
91754,F28Ho3Ru4Tm1,3d332c8dbc,Ho3TmRu4F28,"['F', 'Ru', 'Ho', 'Tm']",36,522.7462,5.0824,1,P1,1,triclinic,-221.2894,-3.1235,-0.0746,3D,0.0013,True,0.0,,-0.0746,-0.0283
91811,Cl18La1Nb2Ta4,3d3eaa093f,LaTa4(NbCl9)2,"['Cl', 'Nb', 'La', 'Ta']",25,699.1957,4.0057,1,P1,1,triclinic,-153.5223,-1.9072,-0.0078,3D,,True,0.0,,-0.0078,-0.0067
91818,Cs2Ge3O8Zn1,3d3fd08787,Cs2ZnGe3O8,"['O', 'Zn', 'Ge', 'Cs']",14,258.5662,4.3486,1,P1,1,triclinic,-85.6785,-2.0839,-0.0493,intercalated ion,2.5445,True,0.0,,-0.0493,-0.0493
91864,Gd1Na4O6Ru1,3d48a858f1,Na4GdRuO6,"['O', 'Na', 'Ru', 'Gd']",12,154.9532,4.7825,2,C2,5,monoclinic,-84.4508,-2.1769,-0.0045,intercalated ion,0.6781,True,0.0,,-0.0045,-0.0011
91903,O24Rb6Sc2Se6,3d4e9f2cf4,Rb3Sc(SeO4)3,"['O', 'Sc', 'Se', 'Rb']",38,731.5402,3.3151,3,R3,146,trigonal,-231.3475,-1.923,-0.0315,intercalated ion,3.6596,True,0.0,,-0.0315,-0.0315
91939,F7Tm1,3d559c8b14,TmF7,"['F', 'Tm']",8,143.194,3.5012,1,P1,1,triclinic,-37.2371,-2.4226,-0.3612,intercalated molecule,3.1505,True,0.0,,-0.3612,-0.1728
91995,Ag2F11O1Re2,3d60135264,Re2Ag2OF11,"['O', 'F', 'Ag', 'Re']",16,244.8626,5.5143,m,Cm,8,monoclinic,-91.3509,-2.1764,-0.0181,3D,0.0024,True,0.0,,-0.0181,-0.012
92016,La5O3Pr2Si8Tb3,3d65d83695,La5Tb3Pr2Si8O3,"['O', 'Si', 'La', 'Pr', 'Tb']",21,457.3334,6.2662,mm2,Amm2,38,orthorhombic,-138.3825,-1.5234,-0.0249,3D,0.003,True,0.0,,-0.0249,-0.0243
92017,Cl15Pt1Th5Y1,3d65db7940,YTh5PtCl15,"['Cl', 'Y', 'Pt', 'Th']",22,735.6902,4.46,4mm,I4mm,107,tetragonal,-130.782,-2.4294,-0.0096,3D,0.8934,True,0.0,,-0.0096,-0.0093
92022,Bi6Lu1Nb1O14,3d664b4b45,LuNb(Bi3O7)2,"['O', 'Nb', 'Lu', 'Bi']",22,333.5548,8.6909,1,P1,1,triclinic,-154.3147,-2.14,-0.0047,3D,1.0432,True,0.0,,-0.0047,-0.0047
92032,F28Pt3Tb4V1,3d686b1fe7,Tb4VPt3F28,"['F', 'V', 'Tb', 'Pt']",36,527.1883,5.6818,1,P1,1,triclinic,-211.5151,-3.1155,-0.0095,3D,1.9728,True,0.0,,-0.0095,-0.0094
92079,Bi2Ga2O12Pr2Tb2,3d7120f21d,TbPrGaBiO6,"['O', 'Ga', 'Pr', 'Tb', 'Bi']",20,300.2772,7.4604,m,Cc,9,monoclinic,-150.9217,-2.944,-0.0018,3D,3.4032,True,0.0,,-0.0018,-0.0018
92132,Cl19Tl1,3d7a4b69e6,TlCl19,"['Cl', 'Tl']",20,709.2029,2.0557,1,P1,1,triclinic,-51.1994,-0.6858,-0.4604,0D,,True,0.0,,-0.4604,-0.4313
92137,Au1O14P4U1,3d7b560134,UP4AuO14,"['O', 'P', 'Au', 'U']",20,318.5878,4.0805,1,P1,1,triclinic,-156.0952,-2.5303,-0.0029,3D,0.276,True,0.0,,-0.0029,-0.0029
92148,Bi2La4O14Sb2,3d7ca7ac0c,La2BiSbO7,"['O', 'Sb', 'La', 'Bi']",22,334.1591,7.1612,mm2,Ama2,40,orthorhombic,-167.7395,-2.8494,-0.008,3D,2.4751,True,0.0,,-0.008,-0.008
92166,Br2Se22,3d7fce09a2,Se11Br,"['Se', 'Br']",24,1042.7366,3.0208,1,P1,1,triclinic,-91.312,-0.4637,-0.4036,0D,1.2876,False,0.0,,-0.4036,-0.3937
92204,Ba4Br2Ge2Pd2,3d870d32f5,Ba2GePdBr,"['Ge', 'Br', 'Pd', 'Ba']",10,324.8514,5.4554,6mm,P6_3mc,186,hexagonal,-43.1666,-1.2819,-0.0706,intercalated ion,,False,0.0,,-0.0706,-0.0316
92231,Ac3Eu1O24Se6,3d8c85163f,Ac3Eu(SeO4)6,"['O', 'Se', 'Eu', 'Ac']",34,748.1069,3.7528,3,R3,146,trigonal,-231.4871,-2.0325,-0.3033,3D,,True,-0.0,,-0.3033,-0.3027
92268,F28Gd1Lu3Pd4,3d928fbbac,GdLu3Pd4F28,"['F', 'Pd', 'Gd', 'Lu']",36,494.9731,5.5012,1,P1,1,triclinic,-204.6427,-2.854,-0.0803,3D,,True,0.0,,-0.0803,-0.03
92282,Br12Li1Na3Th2,3d94c04fe9,Na3LiTh2Br12,"['Li', 'Na', 'Br', 'Th']",18,655.5754,3.7965,32,P312,149,trigonal,-77.144,-2.0443,-0.0185,intercalated ion,4.0515,True,0.0,,-0.0185,-0.0176
92326,Ca1O6Pt1Te1,3d9cadca15,CaTePtO6,"['O', 'Ca', 'Te', 'Pt']",9,122.3959,6.224,32,P312,149,trigonal,-57.8692,-1.8846,-0.0619,intercalated ion,2.2673,True,0.0,,-0.0619,-0.0619
92338,Al6Cu4Ga2O4Ti12,3d9f570e7d,Ti6Al3Ga(CuO)2,"['O', 'Al', 'Ti', 'Cu', 'Ga']",28,377.9808,5.2451,mm2,Ima2,46,orthorhombic,-191.8017,-1.1549,-0.0531,3D,0.0016,True,0.0,,-0.0531,-0.0469
92351,La1O12Pr4Ru1Sc1,3da222358d,LaPr4ScRuO12,"['O', 'Sc', 'Ru', 'La', 'Pr']",19,292.6389,5.9045,2,C2,5,monoclinic,-162.3688,-3.333,-0.0273,3D,,True,0.0,,-0.0273,-0.0273
92384,Ho1Mo2O14Tb5,3da696139a,Tb5Ho(MoO7)2,"['O', 'Mo', 'Tb', 'Ho']",22,299.331,7.6302,1,P1,1,triclinic,-193.8784,-3.4164,-0.021,3D,1.4272,True,0.0,,-0.021,-0.0169
92389,K24O48Rh12,3da6f1c858,K2RhO4,"['O', 'K', 'Rh']",84,1647.865,2.9638,mm2,Pna2_1,33,orthorhombic,-467.656,-1.3706,-0.1074,intercalated ion,,True,0.0,,-0.1074,-0.0129
92409,Bi8La18O10Pb2,3daaf3bd52,La9Bi4PbO5,"['O', 'La', 'Pb', 'Bi']",38,1064.707,7.4028,1,P1,1,triclinic,-262.8492,-2.2625,-0.0384,3D,,True,0.0,,-0.0384,-0.0384
92422,Ba3O26Si4Ta5W1,3dadcaa0ae,Ba3Ta5Si4WO26,"['O', 'Si', 'Ba', 'Ta', 'W']",39,564.8943,5.964,m,Cm,8,monoclinic,-357.8773,-3.3212,-0.004,intercalated ion,2.1054,True,0.0,,-0.004,-0.0025
92437,O2P2Pr2Re1Rh1,3db101048d,Pr2ReP2RhO2,"['O', 'P', 'Rh', 'Pr', 'Re']",8,140.1159,7.8795,-42m,P-4m2,115,tetragonal,-66.6955,-2.0753,-0.0367,3D,0.0028,True,0.0,,-0.0367,-0.0269
92488,F20Gd1Rb2Y5,3db87e2676,Rb2GdY5F20,"['F', 'Rb', 'Y', 'Gd']",28,408.7654,4.6826,4mm,I4mm,107,tetragonal,-205.8291,-4.2582,-0.0432,intercalated ion,4.7192,True,0.0,,-0.0432,-0.0077
92493,B3Gd1O15Pr2Si3,3db95235fe,Pr2GdSi3(BO5)3,"['B', 'O', 'Si', 'Pr', 'Gd']",24,273.3588,4.8338,1,P1,1,triclinic,-215.6563,-3.3952,-0.0032,3D,2.6562,True,0.0,,-0.0032,-0.0007
92498,Eu6F1O11U1,3dba321401,Eu6UO11F,"['O', 'F', 'Eu', 'U']",19,312.3396,7.1496,1,P1,1,triclinic,-196.2252,-3.518,-0.1742,3D,,True,0.0,,-0.1742,-0.0705
92519,Hf1O18P6Pb1,3dbe20d2fe,HfP6PbO18,"['O', 'P', 'Hf', 'Pb']",26,456.7386,3.1249,32,P312,149,trigonal,-206.7793,-2.7526,-0.0107,3D,5.1553,True,0.0,,-0.0107,-0.0063
92529,Bi2La3O14Pr3,3dc07e887e,La3Pr3(BiO7)2,"['O', 'La', 'Pr', 'Bi']",22,355.469,6.9202,1,P1,1,triclinic,-174.7826,-3.1173,-0.0592,3D,1.3579,True,0.0,,-0.0592,-0.0592
92547,Cl8Gd7Re2Tb1,3dc2f51a87,TbGd7(ReCl4)2,"['Cl', 'Gd', 'Tb', 'Re']",18,484.2477,6.5692,1,P1,1,triclinic,-173.5493,-1.6979,-0.0323,3D,,True,0.0,,-0.0323,-0.0321
92626,In1Ir4O24Tb7,3dd01d38bd,Tb7In(IrO6)4,"['O', 'In', 'Tb', 'Ir']",36,483.0868,8.1814,1,P1,1,triclinic,-282.5146,-2.5894,-0.077,3D,,True,0.0,,-0.077,-0.0443
92689,Ac7Cl2Sn6Sr3,3ddb782bf1,Sr3Ac7(Sn3Cl)2,"['Cl', 'Sr', 'Sn', 'Ac']",18,632.558,6.9173,mm2,Amm2,38,orthorhombic,-80.2551,-1.0324,-0.2139,intercalated ion,0.0088,True,0.0,,-0.2139,-0.1054
92712,Al2Br5Hg2I3,3ddff62c25,Al2Hg2I3Br5,"['Al', 'Br', 'I', 'Hg']",12,496.6726,4.1303,1,P1,1,triclinic,-34.1395,-1.107,-0.0083,0D,,True,-0.0,,-0.0083,-0.0081
92727,F8K8O32P8Sc7V1,3de30c1988,K8Sc7VP8(O4F)8,"['O', 'F', 'P', 'K', 'Sc', 'V']",64,918.4595,2.875,1,P1,1,triclinic,-487.4249,-3.2531,-0.0222,intercalated ion,,True,0.0,,-0.0222,-0.0205
92759,Cl18Pa2,3de6c98cd3,PaCl9,"['Cl', 'Pa']",20,875.8691,2.0859,m,Cc,9,monoclinic,-84.9522,-1.6325,-0.2251,0D,2.256,True,0.0,,-0.2251,-0.225
92813,Bi5O22Ru4Sm3,3df098c147,Sm3Bi5(Ru2O11)2,"['O', 'Ru', 'Sm', 'Bi']",34,480.446,7.7843,1,P1,1,triclinic,-249.8099,-2.0662,-0.0186,3D,0.0018,True,0.0,,-0.0186,-0.0186
92825,Cl18Nb6Tl1Tm1,3df3db4f6e,TmNb6TlCl18,"['Cl', 'Nb', 'Tm', 'Tl']",26,671.2485,3.8812,3,R3,146,trigonal,-148.405,-1.8341,-0.0108,intercalated ion,,True,0.0,,-0.0108,-0.0039
92827,O24Pr7Pu1W4,3df40467a7,Pr7Pu(WO6)4,"['O', 'Pr', 'W', 'Pu']",36,535.1318,7.2912,1,P1,1,triclinic,-333.1112,-3.1887,-0.0108,3D,,True,0.0,,-0.0108,-0.0105
92834,Cl18Cs6Tl3Tm1,3df53598df,Cs6Tm(TlCl6)3,"['Cl', 'Cs', 'Tm', 'Tl']",28,948.1073,3.8841,3,R3,146,trigonal,-104.0183,-1.9218,-0.0021,intercalated ion,,False,0.0,,-0.0021,-0.0007
92909,O24P6Pb1Sn1Ti3,3e035bada4,Ti3SnP6PbO24,"['O', 'P', 'Ti', 'Sn', 'Pb']",35,474.3357,3.6385,3,R3,146,trigonal,-282.505,-2.8533,-0.0046,3D,2.8287,True,-0.0,,-0.0046,-0.0045
92942,Ba4Ir4O20,3e08ccc7cc,BaIrO5,"['O', 'Ba', 'Ir']",28,419.502,6.4844,mm2,Fdd2,43,orthorhombic,-188.4648,-1.6599,-0.0939,intercalated ion,0.0011,True,0.0,,-0.0939,-0.0928
92943,Ca9O1Si6Th1,3e08e435ae,Ca9ThSi6O,"['O', 'Si', 'Ca', 'Th']",17,430.6527,2.997,m,Cm,8,monoclinic,-77.2339,-0.8394,-0.0131,intercalated ion,0.0336,True,0.0,,-0.0131,-0.0125
92954,F20Ru1Tc3,3e0a7b2144,Tc3RuF20,"['F', 'Tc', 'Ru']",24,455.6689,2.8244,1,P1,1,triclinic,-133.3631,-2.2824,-0.042,1D,0.1886,True,0.0,,-0.042,-0.0363
93001,Gd2Ho4Lu2O24W4,3e13ea9ac2,GdHo2Lu(WO6)2,"['O', 'Gd', 'Ho', 'Lu', 'W']",36,458.8717,8.8424,2,P2,3,monoclinic,-345.6229,-3.3199,-0.0071,3D,,False,0.0,,-0.0071,-0.0054
93002,F14Ge2Tm2,3e142c1eff,TmGeF7,"['F', 'Ge', 'Tm']",18,242.4041,5.1317,2,P2_1,4,monoclinic,-108.3473,-3.5216,-0.1949,3D,5.4299,True,0.0,,-0.1949,-0.0274
93034,Al1O1Si9Sr10,3e177117fe,Sr10AlSi9O,"['O', 'Al', 'Si', 'Sr']",21,569.8523,3.415,m,Cm,8,monoclinic,-89.0865,-0.6986,-0.0204,intercalated ion,0.0124,True,0.0,,-0.0204,-0.0172
93108,F34S1Te1,3e276b6cf0,TeSF34,"['F', 'S', 'Te']",36,669.5814,1.9979,1,P1,1,triclinic,-113.4644,-1.1443,-0.2705,0D,,True,0.0,,-0.2705,-0.2705
93152,Li2O16Te1Tl6W3,3e2f76ab60,Li2Tl6TeW3O16,"['Li', 'O', 'Te', 'W', 'Tl']",28,479.8122,7.5283,2,P2,3,monoclinic,-188.7495,-1.7706,-0.0069,intercalated ion,2.3446,True,-0.0,,-0.0069,-0.0045
93187,Ir2O14Pr2Tb1Tm3,3e34dbad71,TbPr2Tm3(IrO7)2,"['O', 'Pr', 'Tb', 'Tm', 'Ir']",22,292.1176,8.8449,m,Pm,6,monoclinic,-183.0865,-3.1143,-0.041,3D,0.0045,False,0.0,,-0.041,-0.0321
93214,O24Sm2V4W4Y2,3e39535a09,SmYV2(WO6)2,"['O', 'V', 'Y', 'Sm', 'W']",36,442.9949,6.7533,m,Pc,7,monoclinic,-332.1821,-2.8581,-0.0062,3D,1.6604,True,0.0,,-0.0062,-0.0032
93226,Bi1F1O11Y6,3e3b473462,Y6BiO11F,"['O', 'F', 'Y', 'Bi']",19,276.7703,5.6242,1,P1,1,triclinic,-166.6996,-3.5617,-0.0504,3D,,True,0.0,,-0.0504,-0.0263
93232,Ir4O16Tb3Tm1,3e3bef0d56,Tb3Tm(IrO4)4,"['O', 'Tb', 'Tm', 'Ir']",24,298.3376,9.2983,1,P1,1,triclinic,-190.0545,-2.3814,-0.067,3D,0.0014,True,0.0,,-0.067,-0.0425
93279,Bi3F28La1Tc4,3e41eebab8,LaTc4Bi3F28,"['F', 'Tc', 'La', 'Bi']",36,580.7392,4.8317,1,P1,1,triclinic,-212.6598,-2.808,-0.0911,3D,1.3984,False,0.0,,-0.0911,-0.0911
93298,Ho1O12Rb2Te3,3e44eba55c,Rb2Ho(TeO4)3,"['O', 'Rb', 'Te', 'Ho']",18,296.9804,5.0919,2,C2,5,monoclinic,-110.1956,-1.9359,-0.0233,intercalated ion,0.0058,True,0.0,,-0.0233,-0.0089
93362,Br12Ca1Li1U2,3e514063fa,LiCa(UBr6)2,"['Li', 'Ca', 'Br', 'U']",16,613.6334,4.0102,2,C2,5,monoclinic,-76.277,-1.8833,-0.0139,intercalated ion,,True,0.0,,-0.0139,-0.0103
93376,Bi1Cl3S24,3e53804c71,Bi(S8Cl)3,"['S', 'Cl', 'Bi']",28,965.097,1.8667,3m,R3m,160,trigonal,-126.1196,-0.6218,-0.4229,0D,2.6549,False,0.0,,-0.4229,-0.4148
93396,Br12I3Sb1,3e569538fc,Sb(IBr4)3,"['Br', 'Sb', 'I']",16,870.8831,2.7863,1,P1,1,triclinic,-38.7814,-0.6523,-0.2104,0D,1.2557,True,0.0,,-0.2104,-0.0231
93501,Cu4F24Na4Sr4,3e648c00bc,NaSrCuF6,"['F', 'Na', 'Cu', 'Sr']",36,532.4666,3.5944,222,P2_12_12_1,19,orthorhombic,-177.8274,-2.8752,-0.1064,intercalated ion,0.9246,True,0.0,,-0.1064,-0.0039
93529,Ca3O24Ta10Ti2,3e6a91b672,Ca3Ta10Ti2O24,"['O', 'Ca', 'Ti', 'Ta']",39,488.1289,8.1965,1,P1,1,triclinic,-384.0531,-3.203,-0.006,intercalated ion,,True,0.0,,-0.006,-0.0059
93555,Cd2O8Pd2Ti1,3e6e5f1b9e,TiCd2(PdO4)2,"['O', 'Ti', 'Pd', 'Cd']",13,168.2095,6.0566,2,C2,5,monoclinic,-81.138,-1.6503,-0.0736,3D,1.4029,True,0.0,,-0.0736,-0.0272
93644,La3Mg4O24Ru4Sr5,3e7f899bd0,Sr5La3Mg4(RuO6)4,"['O', 'Mg', 'Sr', 'Ru', 'La']",40,504.7923,5.7248,1,P1,1,triclinic,-294.8904,-2.7346,-0.035,intercalated ion,0.0086,True,0.0,,-0.035,-0.0186
93648,Cl2Rb12S8Tl2,3e807b38ec,Rb6TlS4Cl,"['S', 'Cl', 'Rb', 'Tl']",24,773.6202,3.7816,6mm,P6_3mc,186,hexagonal,-84.686,-1.3086,-0.0482,intercalated ion,,True,0.0,,-0.0482,-0.0482
93670,Br12Pr12Pt3Rh1,3e852cc61f,Pr12Pt3RhBr12,"['Br', 'Rh', 'Pr', 'Pt']",28,921.2661,6.0164,32,R32,155,trigonal,-150.0122,-1.6936,-0.0048,3D,0.0118,True,0.0,,-0.0048,-0.0004
93696,Bi1Ce1O2Tb1,3e87e1628e,TbCeBiO2,"['O', 'Ce', 'Tb', 'Bi']",5,103.7433,8.6437,4mm,I4mm,107,tetragonal,-38.9441,-2.9181,-0.0003,3D,0.0011,True,-0.0,,-0.0003,-0.0003
93763,Br18Cs6Rh2V2,3e91314ee8,Cs3VRhBr9,"['V', 'Br', 'Rh', 'Cs']",28,1030.5265,4.0983,6mm,P6_3mc,186,hexagonal,-110.8719,-1.5407,-0.0815,intercalated ion,0.2241,True,0.0,,-0.0815,-0.0325
93778,F12Sc1W3,3e93d2ea8e,Sc(WF4)3,"['F', 'Sc', 'W']",16,273.312,5.0091,1,P1,1,triclinic,-116.2402,-3.006,-0.0838,3D,,True,0.0,,-0.0838,-0.0692
93781,F21K1Rb2V6,3e941cb454,KRb2V6F21,"['F', 'K', 'V', 'Rb']",30,504.6557,3.0096,2,C2,5,monoclinic,-194.4729,-3.2252,-0.0416,intercalated ion,2.165,True,0.0,,-0.0416,-0.0128
93786,Br15Pt1Tb1Th5,3e95151c16,TbTh5PtBr15,"['Br', 'Tb', 'Pt', 'Th']",22,821.5588,5.483,4mm,I4mm,107,tetragonal,-117.2844,-2.0434,-0.041,3D,0.8071,True,0.0,,-0.041,-0.0224
93803,O24Tb1V4W4Y3,3e985e4ba0,TbY3V4(WO6)4,"['O', 'V', 'Y', 'Tb', 'W']",36,438.0146,6.6296,1,P1,1,triclinic,-334.1994,-2.868,-0.0082,3D,1.6689,True,0.0,,-0.0082,-0.0056
93813,Hf13Ir8O4Zr3,3e998cf4df,Hf13Zr3(Ir2O)4,"['O', 'Zr', 'Hf', 'Ir']",28,476.3176,14.6273,2,C2,5,monoclinic,-287.4012,-1.4934,-0.0128,3D,0.0016,True,0.0,,-0.0128,-0.0054
93821,Br35Sr1,3e9ae941b1,SrBr35,"['Br', 'Sr']",36,1931.6333,2.4795,1,P1,1,triclinic,-82.9557,-0.6659,-0.4571,intercalated ion,,False,0.0,,-0.4571,-0.428
93839,Ba4O16Os1W3,3e9d301b30,Ba4OsW3O16,"['O', 'Ba', 'W', 'Os']",24,420.9843,6.1022,2,P2,3,monoclinic,-199.3033,-2.5983,-0.0302,intercalated ion,0.3054,False,0.0,,-0.0302,-0.0276
93855,Cl20In8Pr1Tb3,3ea034225f,Tb3Pr(In2Cl5)4,"['Cl', 'In', 'Pr', 'Tb']",32,931.2283,4.0037,m,Pm,6,monoclinic,-140.0522,-1.9495,-0.0196,intercalated ion,2.8224,True,0.0,,-0.0196,-0.0107
93925,Au4Li1O8Y1,3ead773309,LiY(AuO2)4,"['Li', 'O', 'Y', 'Au']",14,176.755,9.5046,-4,I-4,82,tetragonal,-79.798,-1.3386,-0.0304,intercalated ion,,True,-0.0,,-0.0304,-0.0138
93964,F5O2Ti1,3eb236a3f7,TiO2F5,"['O', 'F', 'Ti']",8,124.0139,2.3413,1,P1,1,triclinic,-46.8579,-2.4386,-0.0402,intercalated molecule,1.171,False,0.0,,-0.0402,-0.0328
93992,Ca2La2O12Sr2U2,3eb79c4ccd,SrCaLaUO6,"['O', 'Ca', 'Sr', 'La', 'U']",20,344.7611,5.7858,1,P1,1,triclinic,-173.0591,-3.6919,-0.0238,intercalated ion,0.8527,True,0.0,,-0.0238,-0.0238
94008,Li12Lu10O48Pr2Te8,3eba6ca1d7,Li6PrLu5(TeO6)4,"['Li', 'O', 'Te', 'Pr', 'Lu']",80,936.0916,6.9245,2,C2,5,monoclinic,-562.1008,-2.7722,-0.0133,intercalated ion,,True,0.0,,-0.0133,-0.0089
94131,F24Os3Pu1,3ecd97d876,PuOs3F24,"['F', 'Os', 'Pu']",28,480.1029,4.3948,m,Pm,6,monoclinic,-160.1357,-2.3682,-0.1329,0D,0.0001,True,0.0,,-0.1329,-0.1323
94162,F60Sb12Sr4,3ed27871e5,SrSb3F15,"['F', 'Sr', 'Sb']",76,1528.7153,3.206,222,P2_12_12_1,19,orthorhombic,-396.2249,-2.9636,-0.0814,intercalated ion,,True,0.0,,-0.0814,-0.0402
94167,F28Hf1Pr4Ru3,3ed30db905,Pr4HfRu3F28,"['F', 'Ru', 'Pr', 'Hf']",36,589.4054,4.4437,1,P1,1,triclinic,-232.9579,-3.4037,-0.0309,3D,0.0013,True,0.0,,-0.0309,-0.0276
94207,Hf2Li4O48P12Zr6,3edb3e88ac,Li2HfZr3(PO4)6,"['Li', 'O', 'P', 'Zr', 'Hf']",72,1016.9092,3.383,1,P1,1,triclinic,-611.2137,-3.1933,-0.007,intercalated ion,,True,0.0,,-0.007,-0.0054
94218,Eu2F20Mg2V4,3edd6eba78,EuMgV2F10,"['F', 'Mg', 'V', 'Eu']",28,412.863,3.7657,mm2,Fdd2,43,orthorhombic,-198.28,-3.5759,-0.0346,3D,,True,0.0,,-0.0346,-0.0334
94294,Eu4F28Tc2V2,3eec2ae77a,Eu2VTcF14,"['F', 'V', 'Tc', 'Eu']",36,589.0596,4.0528,2,P2_1,4,monoclinic,-252.8174,-3.3122,-0.1352,3D,,True,0.0,,-0.1352,-0.0937
94313,Gd1O18Ta6Tb1,3eef5f1c70,TbGdTa6O18,"['O', 'Gd', 'Tb', 'Ta']",26,335.5084,8.3636,m,Pm,6,monoclinic,-270.3414,-3.5162,-0.002,3D,3.0919,True,0.0,,-0.002,-0.0006
94382,Br2Rh1Si1Y2,3efac0d018,Y2SiRhBr2,"['Si', 'Br', 'Y', 'Rh']",6,165.4774,4.7024,3m,P3m1,156,trigonal,-38.6344,-1.6063,-0.0313,2D,0.0183,True,0.0,,-0.0313,-0.031
94387,Br18C1Rb3Sr1Ti6,3efb2a7b68,Rb3SrTi6CBr18,"['C', 'Ti', 'Br', 'Rb', 'Sr']",29,905.2637,3.8181,1,P1,1,triclinic,-142.2777,-1.7787,-0.0617,0D,,True,0.0,,-0.0617,-0.0309
94388,Ho3O14Pr1Ta2Y2,3efb62f85b,PrY2Ho3Ta2O14,"['O', 'Y', 'Pr', 'Ho', 'Ta']",22,301.7481,7.701,1,P1,1,triclinic,-209.2097,-3.8528,-0.0145,3D,3.5276,True,0.0,,-0.0145,-0.011
94407,F24Te1U3,3effcfb255,U3TeF24,"['F', 'Te', 'U']",28,547.5839,3.9351,m,Pm,6,monoclinic,-177.1606,-3.3667,-0.0033,0D,2.8434,True,0.0,,-0.0033,-0.0018
94414,Cl12Eu1Ir3,3f00cc7ae5,Eu(IrCl4)3,"['Cl', 'Eu', 'Ir']",16,430.4167,4.4523,2,C2,5,monoclinic,-80.1499,-1.3225,-0.0265,3D,,True,0.0,,-0.0265,-0.0103
94416,C2Cl2Tb3Tm1,3f00fad189,Tb3Tm(CCl)2,"['C', 'Cl', 'Tb', 'Tm']",8,157.0748,7.8298,3m,P3m1,156,trigonal,-50.6078,-1.2598,-0.1597,3D,0.0078,True,0.0,,-0.1597,-0.0039
94460,Mg8O16Pd3Pt1,3f0834a965,Mg8Pd3PtO16,"['O', 'Mg', 'Pd', 'Pt']",28,318.2263,5.0343,2,P2,3,monoclinic,-173.3291,-2.1619,-0.0436,3D,,True,0.0,,-0.0436,-0.0212
94476,Ca1Cl8Pb1Sn2,3f0aded534,CaSn2PbCl8,"['Cl', 'Ca', 'Sn', 'Pb']",12,384.6145,3.3172,2,P2,3,monoclinic,-50.0552,-1.7941,-0.0019,intercalated ion,2.8201,True,0.0,,-0.0019,-0.0011
94542,Bi4Mo4O32P4Rb1Tl7,3f15cddf89,RbTl7Bi4Mo4(PO8)4,"['O', 'P', 'Rb', 'Mo', 'Tl', 'Bi']",52,926.1432,6.0453,1,P1,1,triclinic,-363.3628,-2.0562,-0.0082,intercalated ion,,True,-0.0,,-0.0082,-0.0082
94596,Al2Ba4Br2Pt2,3f1ed3b890,Ba2AlPtBr,"['Al', 'Br', 'Ba', 'Pt']",10,322.0579,5.9462,6mm,P6_3mc,186,hexagonal,-43.4248,-1.2842,-0.0352,intercalated ion,,True,0.0,,-0.0352,-0.0102
94631,Ce6F31K7,3f24b56446,K7Ce6F31,"['F', 'K', 'Ce']",44,687.6962,4.1129,3,R3,146,trigonal,-270.4421,-3.814,-0.0362,intercalated ion,,True,0.0,,-0.0362,-0.032
94647,As3Br18Gd1Rb6,3f2755dbef,Rb6Gd(AsBr6)3,"['As', 'Br', 'Rb', 'Gd']",28,1030.1687,3.7607,3m,P3m1,156,trigonal,-108.317,-1.6034,-0.033,intercalated ion,,True,0.0,,-0.033,-0.0274
94662,C1Cl8,3f2a788334,CCl8,"['C', 'Cl']",9,393.1813,1.2486,1,P1,1,triclinic,-29.5914,-0.6196,-0.2626,0D,2.5305,True,-0.0,,-0.2626,-0.2619
94754,As8Ca1O32Sr3Zn8,3f39c4831b,Sr3CaZn8(AsO4)8,"['O', 'Ca', 'Zn', 'As', 'Sr']",52,803.5367,4.004,1,P1,1,triclinic,-323.1541,-2.123,-0.0004,intercalated ion,2.8649,True,0.0,,-0.0004,-0.0004
94784,O12Te2V2Zn2,3f3ea6073d,VZnTeO6,"['O', 'V', 'Zn', 'Te']",18,199.7433,5.6522,4mm,P4_2nm,102,tetragonal,-120.3264,-1.8876,-0.0091,3D,1.6064,False,0.0,,-0.0091,-0.0091
94805,O12Pr4Rh2Th1,3f42e30321,Pr4Th(RhO6)2,"['O', 'Rh', 'Pr', 'Th']",19,287.1168,6.9024,m,Cm,8,monoclinic,-158.9591,-3.0693,-0.0283,3D,0.0082,True,0.0,,-0.0283,-0.0283
94808,Br18Cs6Lu1P2Sc1,3f43360a27,Cs6LuSc(PBr9)2,"['P', 'Sc', 'Br', 'Cs', 'Lu']",28,1086.1412,3.849,3m,P3m1,156,trigonal,-106.3303,-1.779,-0.034,intercalated ion,,False,0.0,,-0.034,-0.0229
94861,F8Se14Tc12,3f4b68467b,Tc6Se7F4,"['F', 'Se', 'Tc']",34,824.1613,4.9029,3m,R3c,161,trigonal,-232.4841,-1.2918,-0.608,3D,,True,0.0,,-0.608,-0.0956
94875,Eu3Ga4O14Si2Sr1,3f4e494148,SrEu3Ga4(SiO7)2,"['O', 'Si', 'Ga', 'Sr', 'Eu']",24,348.7324,5.25,1,P1,1,triclinic,-195.9382,-2.9641,-0.0283,intercalated ion,0.0068,True,0.0,,-0.0283,-0.0282
94881,Bi5Lu1O14Ta2,3f50793ecb,LuTa2Bi5O14,"['O', 'Lu', 'Ta', 'Bi']",22,331.5871,9.043,m,Pm,6,monoclinic,-172.4273,-2.5213,-0.0051,3D,,True,0.0,,-0.0051,-0.0051
94897,Ba2F14Sb1V1,3f53513046,Ba2VSbF14,"['F', 'V', 'Sb', 'Ba']",18,287.6152,4.1184,1,P1,1,triclinic,-102.6963,-3.2714,-0.0475,intercalated ion,1.8978,True,0.0,,-0.0475,-0.0443
94898,B2F7Na1,3f5360d474,NaB2F7,"['B', 'F', 'Na']",10,140.861,2.0936,1,P1,1,triclinic,-59.9555,-3.1894,-0.0041,intercalated ion,8.1418,False,0.0,,-0.0041,-0.0038