Unnamed: 0,Composition,MaterialId,Reduced Formula,Elements,NSites,Volume,Density,Point Group,Space Group,Space Group Number,Crystal System,Corrected Energy,Formation Energy Per Atom,Decomposition Energy Per Atom,Dimensionality Cheon,Bandgap,Is Train,Decomposition Energy Per Atom All,Decomposition Energy Per Atom Relative,Decomposition Energy Per Atom MP,Decomposition Energy Per Atom MP OQMD
143786,Bi5O14Y3,5fb5b3c763,Y3Bi5O14,"['O', 'Y', 'Bi']",22,332.5995,7.6667,1,P1,1,triclinic,-160.6826,-2.3892,-0.0453,3D,1.4225,False,0.0,,-0.0453,-0.0322
143801,Li5O5Pa1,5fb847c248,Li5PaO5,"['Li', 'O', 'Pa']",11,128.8101,4.457,m,Cm,8,monoclinic,-74.6568,-2.8052,-0.1596,intercalated ion,3.1973,True,0.0,,-0.1596,-0.0145
143841,F20N2Nb1Sb1,5fbdcc5a21,NbSb(NF10)2,"['N', 'F', 'Nb', 'Sb']",24,377.8653,2.7362,1,P1,1,triclinic,-115.0684,-1.914,-0.3262,0D,3.4276,False,0.0,,-0.3262,-0.1424
143842,Cl12Ir1Pr12Rh3,5fbdedb841,Pr12Ir(RhCl4)3,"['Cl', 'Rh', 'Pr', 'Ir']",28,839.3668,5.1778,32,R32,155,trigonal,-161.646,-1.8272,-0.0088,3D,0.0079,True,0.0,,-0.0088,-0.0084
143844,Br1I5Pd1Se2,5fbe5bcacf,PdSe2I5Br,"['Se', 'Br', 'Pd', 'I']",9,391.1763,4.1549,1,P1,1,triclinic,-25.7955,-0.4852,-0.137,0D,0.9934,True,0.0,,-0.137,-0.0402
143845,F28Gd4Ru1Tc3,5fbe73565b,Gd4Tc3RuF28,"['F', 'Tc', 'Ru', 'Gd']",36,533.7749,4.8407,1,P1,1,triclinic,-268.1177,-3.2737,-0.2038,3D,,True,0.0,,-0.2038,-0.0774
143881,Br12La3Ru2Tb5,5fc687b8b0,La3Tb5(RuBr6)2,"['Br', 'Ru', 'La', 'Tb']",22,810.6404,4.8596,m,Pm,6,monoclinic,-116.8916,-1.8509,-0.017,3D,0.0038,False,0.0,,-0.017,-0.0161
143903,Ce1F24Th1,5fcaf7513b,CeThF24,"['F', 'Ce', 'Th']",26,490.6568,2.8026,1,P1,1,triclinic,-107.3516,-1.8511,-0.205,intercalated molecule,2.146,True,0.0,,-0.205,-0.205
143923,Ag1K2Nb3O24P3Ta3,5fcd796a33,K2Ta3Nb3Ag(PO8)3,"['O', 'P', 'K', 'Nb', 'Ag', 'Ta']",36,561.6236,4.3893,1,P1,1,triclinic,-311.4496,-2.9313,-0.0041,intercalated ion,,True,0.0,,-0.0041,-0.0017
143945,Br18Cs2Hf3Zr1,5fd1d4583f,Cs2Hf3ZrBr18,"['Br', 'Zr', 'Cs', 'Hf']",24,947.4528,4.085,1,P1,1,triclinic,-115.8604,-1.9244,-0.0084,intercalated ion,2.8606,True,0.0,,-0.0084,-0.0
143982,La2O18Se6Sm1Tb1,5fd718b56d,La2TbSm(SeO3)6,"['O', 'Se', 'La', 'Sm', 'Tb']",28,458.1909,4.8884,1,P1,1,triclinic,-194.9233,-2.345,-0.0208,3D,,False,0.0,,-0.0208,-0.0208
144001,Br17Cs2La9Os2Pr1,5fda1fedf9,Cs2La9PrOs2Br17,"['Br', 'Cs', 'La', 'Pr', 'Os']",31,1200.3422,4.6976,m,Cm,8,monoclinic,-161.8245,-1.9531,-0.0622,intercalated ion,,True,-0.0,,-0.0622,-0.0616
144045,Lu3O24Tm5W4,5fe11c059f,Tm5Lu3(WO6)4,"['O', 'Tm', 'Lu', 'W']",36,443.8661,9.3112,1,P1,1,triclinic,-327.0179,-3.347,-0.0021,3D,3.6218,True,0.0,,-0.0021,-0.0019
144063,Br2C2Pr1Y3,5fe534330b,PrY3(CBr)2,"['C', 'Br', 'Y', 'Pr']",8,173.8883,5.6481,3m,P3m1,156,trigonal,-54.5895,-1.0852,-0.0643,3D,0.0025,False,-0.0,,-0.0643,-0.0109
144091,Ac1Ba2Ga11O20,5fe8d91f5b,Ba2AcGa11O20,"['O', 'Ga', 'Ba', 'Ac']",34,466.2302,5.658,m,Cm,8,monoclinic,-226.9116,-2.5495,-0.0098,intercalated ion,2.6499,True,0.0,,-0.0098,-0.0082
144142,Cl30Ru5Tc1,5ff1a66aab,Tc(RuCl6)5,"['Cl', 'Tc', 'Ru']",36,1109.5538,2.4947,1,P1,1,triclinic,-145.8837,-0.936,-0.2158,0D,inf,True,0.0,,-0.2158,-0.0186
144182,Ba12Br8Ge1P3,5ff92144b4,Ba12GeP3Br8,"['P', 'Ge', 'Br', 'Ba']",24,937.8817,4.3426,2,C2,5,monoclinic,-98.5161,-1.7348,-0.0546,intercalated ion,,True,0.0,,-0.0546,-0.001
144259,Br1Pr19Si15Sm1,6006232f64,Pr19SmSi15Br,"['Si', 'Br', 'Pr', 'Sm']",36,967.9622,5.7105,1,P1,1,triclinic,-203.8635,-0.7025,-0.0144,3D,0.0007,True,0.0,,-0.0144,-0.0106
144304,B1Br12Li1Sc6,600cdd372e,LiSc6BBr12,"['Li', 'B', 'Sc', 'Br']",20,533.8068,3.877,3,R3,146,trigonal,-103.6568,-1.8715,-0.1073,intercalated ion,0.007,True,0.0,,-0.1073,-0.0292
144343,Br6Hf1Sr1,6012642235,SrHfBr6,"['Br', 'Sr', 'Hf']",8,335.8158,3.6865,32,P312,149,trigonal,-38.3032,-2.1044,-0.0297,intercalated ion,3.4941,True,0.0,,-0.0297,-0.0067
144360,Ba4Ir1O16W3,6015abe889,Ba4IrW3O16,"['O', 'Ba', 'W', 'Ir']",24,423.3803,6.0755,2,P2,3,monoclinic,-195.3806,-2.5344,-0.0295,intercalated ion,0.3863,True,0.0,,-0.0295,-0.0292
144361,Ga1O2P1Ti6,6015e2ae74,Ti6GaPO2,"['O', 'P', 'Ti', 'Ga']",10,132.296,5.2704,mm2,Amm2,38,orthorhombic,-82.2617,-1.6551,-0.0485,3D,0.0032,False,0.0,,-0.0485,-0.0443
144385,Bi1O22Os4Pb7,6019125adb,BiOs4Pb7O22,"['O', 'Os', 'Pb', 'Bi']",34,516.2688,8.9169,1,P1,1,triclinic,-236.1926,-1.5456,-0.0515,3D,0.0008,True,0.0,,-0.0515,-0.0265
144395,O24Tb3W4Y5,601a85a6c0,Tb3Y5(WO6)4,"['O', 'Y', 'Tb', 'W']",36,466.9747,7.2565,2,P2,3,monoclinic,-335.467,-3.2958,-0.0011,3D,3.649,True,0.0,,-0.0011,-0.0011
144402,Br15H8Th5Tm1,601c7825ad,TmTh5H8Br15,"['H', 'Br', 'Tm', 'Th']",29,762.3608,5.5232,4mm,I4mm,107,tetragonal,-141.1828,-1.6532,-0.0241,3D,,True,0.0,,-0.0241,-0.0125
144454,As1Eu2O8Re1,6024f0eedf,Eu2ReAsO8,"['O', 'As', 'Eu', 'Re']",12,188.8718,6.0932,-42m,I-4m2,119,tetragonal,-108.7022,-2.6192,-0.0503,3D,0.0167,False,0.0,,-0.0503,-0.0025
144476,Br12La12Ru3Zn1,6028f5db20,La12Zn(RuBr4)3,"['Zn', 'Br', 'Ru', 'La']",28,930.2553,5.345,32,R32,155,trigonal,-152.0053,-1.5731,-0.0081,3D,inf,True,0.0,,-0.0081,-0.0079
144483,Br20La3Rb8U1,60298f5f7f,Rb8La3UBr20,"['Br', 'Rb', 'La', 'U']",32,1197.4139,4.0723,m,Pm,6,monoclinic,-136.5576,-2.1836,-0.0003,intercalated ion,,True,0.0,,-0.0003,-0.0002
144493,Br12Ca1Ir1Pr1Y5,602a8e4568,CaPrY5IrBr12,"['Ca', 'Br', 'Y', 'Pr', 'Ir']",20,681.4954,4.3288,1,P1,1,triclinic,-108.5162,-2.0458,-0.0152,intercalated ion,0.079,True,0.0,,-0.0152,-0.0122
144495,Bi4O16Os2Ta1Ti1,602a9d4d46,TaTiBi4(OsO8)2,"['O', 'Ti', 'Ta', 'Os', 'Bi']",24,324.8438,8.6961,1,P1,1,triclinic,-187.7728,-2.1182,-0.0256,3D,0.0033,True,-0.0,,-0.0256,-0.022
144505,Ba4Cu4F24Na4,602c9054c0,BaNaCuF6,"['F', 'Na', 'Cu', 'Ba']",36,579.7548,3.8707,222,P2_12_12_1,19,orthorhombic,-178.3972,-2.8655,-0.1108,intercalated ion,0.9068,True,0.0,,-0.1108,-0.0171
144516,Ag1Br12Li3Th2,602e3ff5f5,Li3Th2AgBr12,"['Li', 'Br', 'Ag', 'Th']",18,601.1782,4.2858,32,P312,149,trigonal,-77.1613,-1.8962,-0.0068,intercalated ion,3.2986,True,0.0,,-0.0068,-0.0047
144555,Ag2Au2C4Cu2O16,603421b670,CuAgAu(CO4)2,"['C', 'O', 'Cu', 'Ag', 'Au']",26,348.9166,4.9533,2,P2_1,4,monoclinic,-166.6592,-1.1605,-0.0178,3D,0.0056,True,0.0,,-0.0178,-0.0171
144589,Bi5Br2In1Tb10,6039e8c41a,Tb10InBi5Br2,"['Br', 'In', 'Tb', 'Bi']",18,501.5056,9.6313,mm2,Amm2,38,orthorhombic,-88.4811,-0.9257,-0.0222,3D,0.0026,True,0.0,,-0.0222,-0.0074
144599,Ca1O6Pd1Te1,603b92f5f5,CaTePdO6,"['O', 'Ca', 'Pd', 'Te']",9,120.8288,5.0862,32,P312,149,trigonal,-56.5169,-1.8334,-0.077,intercalated ion,1.7685,True,0.0,,-0.077,-0.0538
144620,Ag4O12Sm1Y3,603f04528f,SmY3(AgO3)4,"['O', 'Y', 'Ag', 'Sm']",20,282.1279,6.1244,m,Pm,6,monoclinic,-138.4267,-2.1801,-0.0183,3D,,True,0.0,,-0.0183,-0.0179
144627,Bi4La1O12Pr1U1,603ff9c41a,LaPrU(BiO3)4,"['O', 'La', 'Pr', 'Bi', 'U']",19,313.4619,8.1885,1,P1,1,triclinic,-147.2861,-2.7022,-0.0356,3D,1.6089,True,0.0,,-0.0356,-0.0356
144639,Bi3Gd1O16Sb4,60415f5939,GdBi3(SbO4)4,"['O', 'Sb', 'Gd', 'Bi']",24,350.5748,7.2339,1,P1,1,triclinic,-171.8999,-2.1021,-0.0375,3D,,True,0.0,,-0.0375,-0.0363
144647,K8Nb2O40P8Ta2V4,60422877de,K4TaNbV2(PO5)4,"['O', 'P', 'K', 'V', 'Nb', 'Ta']",64,943.6619,3.4349,2,P2_1,4,monoclinic,-512.8493,-2.8514,-0.0329,intercalated ion,,True,0.0,,-0.0329,-0.0308
144667,Ga7O4Rh1Ti12,60463b1b21,Ti12Ga7RhO4,"['O', 'Ti', 'Ga', 'Rh']",24,325.417,6.2732,3,R3,146,trigonal,-175.6652,-1.3569,-0.0482,3D,0.0033,True,0.0,,-0.0482,-0.0457
144712,Ca3Ho1O12Ti4,604feca653,Ca3HoTi4O12,"['O', 'Ca', 'Ti', 'Ho']",20,229.5644,4.8365,m,Pm,6,monoclinic,-173.6008,-3.6022,-0.0103,intercalated ion,0.0003,True,0.0,,-0.0103,-0.0102
144745,Ca4Lu1O18U5,6055b73cb7,Ca4LuU5O18,"['O', 'Ca', 'Lu', 'U']",28,404.1048,7.4516,1,P1,1,triclinic,-263.5822,-3.7685,-0.0383,intercalated ion,,True,0.0,,-0.0383,-0.0345
144800,Br12Ho3Si2Tb1Tm4,6060331920,TbHo3Tm4(SiBr6)2,"['Si', 'Br', 'Tb', 'Ho', 'Tm']",22,737.1326,5.2814,m,Pm,6,monoclinic,-107.8773,-1.8681,-0.0611,3D,0.0171,True,0.0,,-0.0611,-0.0156
144813,F28Hf1Pt3Tb3Tm1,6062fb7da7,Tb3TmHfPt3F28,"['F', 'Tb', 'Tm', 'Hf', 'Pt']",36,533.5098,6.0426,1,P1,1,triclinic,-218.015,-3.2762,-0.0019,3D,2.4285,True,0.0,,-0.0019,-0.0016
144841,Cl6Os1Te13,606749ba9b,Te13OsCl6,"['Cl', 'Te', 'Os']",20,669.925,5.1104,32,R32,155,trigonal,-76.7159,-0.6767,-0.2533,1D,,False,0.0,,-0.2533,-0.2091
144852,Br16Sc11Tc3Th1,6068a8db8a,ThSc11Tc3Br16,"['Sc', 'Br', 'Tc', 'Th']",31,1026.3213,3.7197,1,P1,1,triclinic,-183.1726,-1.5751,-0.1067,1D,,True,0.0,,-0.1067,-0.0205
144862,Cl1Lu12Pr8Si15,606a01f8aa,Pr8Lu12Si15Cl,"['Si', 'Cl', 'Pr', 'Lu']",36,847.6465,7.2162,1,P1,1,triclinic,-204.3992,-0.7965,-0.0278,3D,,False,-0.0,,-0.0278,-0.0261
144890,F20Pu1Ta3,606e9b2142,PuTa3F20,"['F', 'Ta', 'Pu']",24,405.0707,4.7832,2,C2,5,monoclinic,-173.2876,-3.5507,-0.0785,0D,0.0006,True,0.0,,-0.0785,-0.0781
144928,In1Np4O24Pr7,6073b5ba25,Pr7Np4InO24,"['O', 'In', 'Pr', 'Np']",36,545.2769,7.4097,1,P1,1,triclinic,-333.2986,-3.515,-0.2189,3D,,True,0.0,,-0.2189,-0.1526
144963,Ho1Ir2La2O14Tb3,607afb546d,La2Tb3Ho(IrO7)2,"['O', 'La', 'Tb', 'Ho', 'Ir']",22,300.5704,8.4413,m,Pm,6,monoclinic,-184.0862,-3.1264,-0.046,3D,0.0027,True,0.0,,-0.046,-0.0371
144987,Cl3Ge3O4P1,607f6aaaf1,Ge3PCl3O4,"['O', 'P', 'Cl', 'Ge']",11,247.362,2.8144,3,R3,146,trigonal,-63.8958,-1.7524,0.003,,,,-0.0112,,-0.0112,-0.0112
145105,Cs2F18Pb4,6092b49e53,CsPb2F9,"['F', 'Cs', 'Pb']",24,458.3164,5.2049,m,Cc,9,monoclinic,-109.1158,-2.4195,-0.1132,intercalated ion,1.9896,True,0.0,,-0.1132,-0.0223
145111,Ga1O1P4Si1Ti10,6093cfbad3,Ti10GaSiP4O,"['O', 'Si', 'P', 'Ti', 'Ga']",17,238.1495,4.995,1,P1,1,triclinic,-135.187,-1.2457,-0.0231,3D,0.0039,True,0.0,,-0.0231,-0.0226
145129,Al2F1Gd6Tc14,60968bcb38,Gd6Al2Tc14F,"['F', 'Al', 'Tc', 'Gd']",23,402.906,9.8438,m,Cm,8,monoclinic,-249.3186,-0.4473,-0.1014,3D,,True,0.0,,-0.1014,-0.0839
145196,O13Pb3Sb1Ta3,60a1e5fe4c,Ta3SbPb3O13,"['O', 'Sb', 'Ta', 'Pb']",20,302.2704,8.2084,3m,R3m,160,trigonal,-167.4713,-2.6154,-0.0124,3D,2.7941,True,0.0,,-0.0124,-0.0124
145277,Ac8Br4Ga9Zn1,60af37fe9e,Ac8ZnGa9Br4,"['Zn', 'Ga', 'Br', 'Ac']",22,650.5886,7.2194,mm2,Amm2,38,orthorhombic,-91.0442,-1.0461,-0.12,3D,0.0009,True,0.0,,-0.12,-0.0989
145317,Br16Cd1Ga4Gd1,60b914b211,GdCd(GaBr4)4,"['Ga', 'Br', 'Cd', 'Gd']",22,827.3913,3.6667,1,P1,1,triclinic,-84.7983,-1.4307,-0.0109,2D,,True,-0.0,,-0.0109,-0.0099
145363,B2Br12Si2Y12,60bec6d164,Y6SiBBr6,"['B', 'Si', 'Br', 'Y']",28,759.4064,4.5996,222,F222,22,orthorhombic,-165.8555,-1.5859,-0.0146,3D,0.0114,True,0.0,,-0.0146,-0.0144
145364,Cl18Lu1Nb4Ta2,60bec6f66e,LuTa2(Nb2Cl9)2,"['Cl', 'Nb', 'Lu', 'Ta']",25,664.6505,3.8641,1,P1,1,triclinic,-148.9578,-1.8817,-0.0059,3D,0.1257,True,-0.0,,-0.0059,-0.0007
145395,Au2Br12La12Ru2,60c42238a7,La6RuAuBr6,"['Br', 'Ru', 'La', 'Au']",28,950.6932,5.6274,222,F222,22,orthorhombic,-149.6334,-1.6308,-0.0178,3D,inf,True,-0.0,,-0.0178,-0.0168
145403,As1Ge1In1O6,60c64087f8,InGeAsO6,"['O', 'Ge', 'As', 'In']",9,98.8438,6.0206,32,P312,149,trigonal,-59.0331,-1.9235,-0.0561,3D,1.4926,True,0.0,,-0.0561,-0.004
145410,Nb7O12V1,60c74dd440,Nb7VO12,"['O', 'V', 'Nb']",20,277.4807,5.3457,3,R3,146,trigonal,-192.8424,-2.6837,-0.0443,3D,,True,0.0,,-0.0443,-0.0378
145702,Cl18Nb1Sm1Ta5,60f63d5898,SmTa5NbCl18,"['Cl', 'Nb', 'Sm', 'Ta']",25,677.4998,4.3778,1,P1,1,triclinic,-154.5574,-1.887,-0.0171,3D,0.1278,True,0.0,,-0.0171,-0.0072
145719,In1O2Pa1S2,60f949ec3b,PaIn(SO)2,"['O', 'S', 'In', 'Pa']",6,122.2909,6.0015,-42m,P-4m2,115,tetragonal,-45.3746,-2.4899,-0.1252,3D,1.9398,True,0.0,,-0.1252,-0.1184
145731,Gd3O14Ta2Tb2Tm1,60fadfdeb9,Tb2Gd3TmTa2O14,"['O', 'Gd', 'Tb', 'Tm', 'Ta']",22,303.1534,8.4597,1,P1,1,triclinic,-233.6261,-3.8485,-0.0038,3D,3.0086,True,0.0,,-0.0038,-0.0035
145744,O26Pa4Se8,60fc576d51,Pa2Se4O13,"['O', 'Se', 'Pa']",38,685.7825,4.7745,m,Pc,7,monoclinic,-281.3745,-2.2816,-0.2651,3D,2.6726,True,0.0,,-0.2651,-0.2651
145780,B2Br12Si2Tb12,6101864ffa,Tb6SiBBr6,"['B', 'Si', 'Br', 'Tb']",28,762.7488,6.4087,222,F222,22,orthorhombic,-143.6634,-1.5785,-0.0044,3D,0.0104,False,0.0,,-0.0044,-0.0044
145787,Gd2Ho1O24Tm5W4,61022a59d0,Gd2HoTm5(WO6)4,"['O', 'Gd', 'Ho', 'Tm', 'W']",36,456.3452,8.8912,2,P2,3,monoclinic,-345.4863,-3.3275,-0.0078,3D,3.4067,True,0.0,,-0.0078,-0.0061
145816,F8Pm1Pt1,61073ae80e,PmPtF8,"['F', 'Pm', 'Pt']",10,149.8006,5.4546,1,P1,1,triclinic,-52.7033,-2.659,-0.0691,3D,0.1774,True,0.0,,-0.0691,-0.069
145862,Cl2La7Lu1Sm2Sn6,610e9fa7e2,La7Sm2Lu(Sn3Cl)2,"['Cl', 'Sn', 'La', 'Sm', 'Lu']",18,537.3716,6.8946,32,P312,149,trigonal,-95.9212,-1.092,-0.0089,3D,0.0001,False,0.0,,-0.0089,-0.0088
145865,C4Cl12Pr11Sm1,610f01e40e,Pr11Sm(CCl3)4,"['C', 'Cl', 'Pr', 'Sm']",28,710.465,5.0808,2,C2,5,monoclinic,-165.7679,-1.7632,-0.0383,3D,0.008,True,0.0,,-0.0383,-0.0145
145869,La5O12Pr1Te1,610fc3a457,La5PrTeO12,"['O', 'Te', 'La', 'Pr']",19,309.5628,6.1957,1,P1,1,triclinic,-157.9552,-3.4724,-0.0274,3D,2.6702,True,0.0,,-0.0274,-0.0274
145890,Ho1Mo1O12Rh1Tb4,611342fbfb,Tb4HoMoRhO12,"['O', 'Mo', 'Rh', 'Tb', 'Ho']",19,256.9461,7.7,2,C2,5,monoclinic,-162.4517,-3.2498,-0.0079,3D,1.5169,True,0.0,,-0.0079,-0.0073
145921,Bi3F28Pt4Sr1,61194dc08a,SrBi3Pt4F28,"['F', 'Sr', 'Pt', 'Bi']",36,574.727,5.8561,1,P1,1,triclinic,-172.6445,-2.2633,-0.0791,intercalated ion,,False,0.0,,-0.0791,-0.051
145924,B3Br12P1Sm12,611a058e28,Sm12B3PBr12,"['B', 'P', 'Br', 'Sm']",28,774.5944,6.0595,32,R32,155,trigonal,-146.0559,-1.5835,-0.0762,3D,0.0019,True,0.0,,-0.0762,-0.0532
145937,Ce1F22Pr1Zr4,611c437a8c,CePrZr4F22,"['F', 'Zr', 'Ce', 'Pr']",28,450.176,3.9243,222,I222,23,orthorhombic,-202.8071,-4.1375,-0.0001,3D,0.207,True,0.0,,-0.0001,-0.0
145938,B1Br20Hf1Rb8Zr5,611c5813d2,Rb8HfZr5BBr20,"['B', 'Br', 'Rb', 'Zr', 'Hf']",35,1246.8062,3.8986,4mm,I4mm,107,tetragonal,-165.8019,-1.8813,-0.0112,intercalated ion,inf,True,0.0,,-0.0112,-0.0038
145939,Eu1Hg2O8Tb3,611c866b3e,Tb3Eu(HgO4)2,"['O', 'Eu', 'Tb', 'Hg']",14,220.7484,8.7102,m,Cm,8,monoclinic,-105.0047,-2.9013,-0.0182,3D,0.0016,True,0.0,,-0.0182,-0.0019
145979,Br6Lu1Pr11Si14,6123d77fc2,Pr11Lu(Si7Br3)2,"['Si', 'Br', 'Pr', 'Lu']",32,802.7219,5.3734,mm2,Pmm2,25,orthorhombic,-178.5376,-1.1141,-0.0602,3D,0.0047,True,0.0,,-0.0602,-0.0137
146072,Cd2Np2O20Pb12,6132a22085,NpCd(Pb3O5)2,"['O', 'Cd', 'Pb', 'Np']",36,659.5878,8.8245,222,C222_1,20,orthorhombic,-239.4683,-1.8949,-0.0563,3D,0.7166,True,0.0,,-0.0563,-0.0515
146090,Ag7Br24Na1Tc4,613547daa5,NaTc4Ag7Br24,"['Na', 'Br', 'Tc', 'Ag']",36,1163.4786,4.4069,3,P3,143,trigonal,-131.2633,-0.8161,-0.0683,intercalated ion,,True,0.0,,-0.0683,-0.0068
146104,Br6Gd1Y1,6139b852f7,GdYBr6,"['Br', 'Y', 'Gd']",8,325.0276,3.7069,2,C2,5,monoclinic,-48.93,-2.3207,-0.0028,2D,2.3185,True,0.0,,-0.0028,-0.0001
146128,B1Br12Si3Y12,613d1f12b1,Y12Si3BBr12,"['B', 'Si', 'Br', 'Y']",28,775.8428,4.5391,32,R32,155,trigonal,-165.2922,-1.6106,-0.0305,3D,0.0078,True,0.0,,-0.0305,-0.0259
146225,Ac1Br6La2Si14Sr9,614f741ac1,Sr9AcLa2(Si7Br3)2,"['Si', 'Br', 'Sr', 'La', 'Ac']",32,896.2482,4.0131,mm2,Pmm2,25,orthorhombic,-148.9532,-1.0618,-0.0419,intercalated ion,0.011,True,0.0,,-0.0419,-0.0396
146241,Bi1F22Sm1Zr4,615115c6a8,SmZr4BiF22,"['F', 'Zr', 'Sm', 'Bi']",28,439.1822,4.3186,222,I222,23,orthorhombic,-194.2914,-3.9086,-0.0038,3D,5.316,True,0.0,,-0.0038,-0.0037
146258,F28Ho4Pd1Pt3,6153f819a1,Ho4PdPt3F28,"['F', 'Pd', 'Ho', 'Pt']",36,519.3516,6.0217,1,P1,1,triclinic,-199.9027,-2.9072,-0.0118,3D,1.2695,True,0.0,,-0.0118,-0.0117
146286,Br18Ce3Cs1Hf1Rb1,6156d5e3a3,CsRbCe3HfBr18,"['Br', 'Rb', 'Cs', 'Ce', 'Hf']",24,995.3212,3.7629,1,P1,1,triclinic,-107.6964,-2.025,-0.0966,,1.1609,,0.0,,-0.0966,-0.0161
146304,F28Pt1Tb4Zr3,615a4dea00,Tb4Zr3PtF28,"['F', 'Zr', 'Tb', 'Pt']",36,564.312,4.8153,1,P1,1,triclinic,-244.5392,-3.9102,-0.0034,3D,2.6362,True,0.0,,-0.0034,-0.002
146326,O8Pm2U1Y1,615deac2b5,Pm2YUO8,"['O', 'Y', 'Pm', 'U']",12,162.3271,7.6203,-42m,I-4m2,119,tetragonal,-111.0296,-3.6822,-0.0277,3D,0.0107,True,-0.0,,-0.0277,-0.0271
146338,Ba4F24Th1U3,61608a34ff,Ba4ThU3F24,"['F', 'Ba', 'Th', 'U']",32,535.4741,6.0514,1,P1,1,triclinic,-227.9797,-4.1606,-0.0372,intercalated ion,0.0113,False,0.0,,-0.0372,-0.0199
146354,La1O18Ta5W1Y1,616226a429,LaYTa5WO18,"['O', 'Y', 'La', 'Ta', 'W']",26,341.9707,7.7905,1,P1,1,triclinic,-260.1072,-3.3613,-0.0029,3D,2.0572,True,0.0,,-0.0029,-0.0006
146355,Br6Pr1Ru2Sm5,616244ad93,PrSm5(RuBr3)2,"['Br', 'Ru', 'Pr', 'Sm']",14,450.6794,5.8004,m,Pm,6,monoclinic,-77.2355,-1.4637,-0.0278,3D,0.1202,True,0.0,,-0.0278,-0.0278
146366,Cs2F21Na1Ti6,61642cbd8d,Cs2NaTi6F21,"['F', 'Na', 'Ti', 'Cs']",30,520.3104,3.1116,2,C2,5,monoclinic,-197.5735,-3.5649,-0.0114,intercalated ion,0.0008,True,0.0,,-0.0114,-0.0067
146371,Bi1Lu1Na4O6,61657b76dc,Na4LuBiO6,"['O', 'Na', 'Lu', 'Bi']",12,162.0492,5.8604,2,C2,5,monoclinic,-70.3337,-2.2454,-0.0116,intercalated ion,1.5081,False,0.0,,-0.0116,-0.0115
146390,As1Ca1F12Os1,6169d073d6,CaAsOsF12,"['F', 'Ca', 'As', 'Os']",15,245.0929,3.6126,1,P1,1,triclinic,-81.1682,-2.6892,-0.0436,intercalated ion,,True,0.0,,-0.0436,-0.0432
146397,Ac20Br1Si15,616ad88f0a,Ac20Si15Br,"['Si', 'Br', 'Ac']",36,1135.0902,7.3748,1,P1,1,triclinic,-186.2059,-0.5768,-0.3243,3D,,True,0.0,,-0.3243,-0.2498
146408,Br12Cs3Rb1Tl1U1,616d1da290,Cs3RbUTlBr12,"['Br', 'Rb', 'Cs', 'Tl', 'U']",18,744.0035,4.2081,2,P2,3,monoclinic,-68.2467,-1.738,-0.0388,intercalated ion,0.6953,True,0.0,,-0.0388,-0.0336
146434,Br12La12Os3Sn1,61728c07eb,La12Sn(OsBr4)3,"['Br', 'Sn', 'La', 'Os']",28,968.7968,5.6822,32,R32,155,trigonal,-161.4222,-1.602,-0.0898,3D,0.004,True,0.0,,-0.0898,-0.0858
146444,Br18Rb6Rh1Sc3,6174288ade,Rb6Sc3RhBr18,"['Sc', 'Br', 'Rb', 'Rh']",28,1001.8464,3.628,3m,P3m1,156,trigonal,-116.0573,-1.941,-0.0052,intercalated ion,1.6586,True,0.0,,-0.0052,-0.0052
146455,Ag4Ca1Hg1O8,61767b8345,CaAg4HgO8,"['O', 'Ca', 'Ag', 'Hg']",14,187.8442,7.0732,-4,I-4,82,tetragonal,-65.8596,-0.9026,-0.0024,intercalated ion,0.6877,True,0.0,,-0.0024,-0.0021
146499,Ag1Br4K1O12,617d86a8d6,KAg(BrO3)4,"['O', 'K', 'Br', 'Ag']",18,330.0869,3.313,1,P1,1,triclinic,-78.9246,-0.5032,-0.076,intercalated ion,1.2996,True,0.0,,-0.076,-0.0522
146543,C2O10Pt2Rb10,6184b42415,Rb5PtCO5,"['C', 'O', 'Rb', 'Pt']",24,559.6792,4.2394,mm2,Aem2,39,orthorhombic,-128.6182,-1.6141,-0.0823,intercalated ion,,True,0.0,,-0.0823,-0.0004
146557,Ac3F28Pr1W4,618610c3e0,Ac3Pr(WF7)4,"['F', 'Pr', 'W', 'Ac']",36,638.4053,5.4342,1,P1,1,triclinic,-251.0528,-3.571,-0.1491,3D,,True,-0.0,,-0.1491,-0.0975
146563,As4K4O14Zn2,6186b5a1b1,K2ZnAs2O7,"['O', 'K', 'Zn', 'As']",24,411.9698,3.2685,-42m,P-42_1m,113,tetragonal,-142.1558,-1.9703,-0.0499,intercalated ion,2.9606,True,0.0,,-0.0499,-0.0216
146613,Ho3O18Se6Tm1,618e0a572a,Ho3Tm(SeO3)6,"['O', 'Se', 'Ho', 'Tm']",28,436.1782,5.4268,1,P1,1,triclinic,-194.1362,-2.3527,-0.0387,3D,3.9683,True,0.0,,-0.0387,-0.0157
146614,O12Rh1Tb5Ti1,618e7b0a46,Tb5TiRhO12,"['O', 'Ti', 'Rh', 'Tb']",19,255.4307,7.3941,2,C2,5,monoclinic,-162.7956,-3.4204,-0.0217,3D,0.1011,True,0.0,,-0.0217,-0.0213
146672,As8Lu3O18Tm1,61992a409a,TmLu3(As4O9)2,"['O', 'As', 'Tm', 'Lu']",30,448.9884,5.8479,1,P1,1,triclinic,-219.0268,-2.4884,-0.0195,3D,3.1824,True,0.0,,-0.0195,-0.0193
146699,O13Pb2Rh3Ru1Tl2,619d3ca565,Tl2RuRh3Pb2O13,"['O', 'Ru', 'Rh', 'Tl', 'Pb']",21,274.3586,8.7212,m,Cm,8,monoclinic,-135.9735,-1.3397,-0.0511,3D,,True,0.0,,-0.0511,-0.0511
146751,O16Tm4V6,61a57769a6,Tm2V3O8,"['O', 'V', 'Tm']",26,318.2551,6.4562,2,C2,5,monoclinic,-233.4484,-3.149,-0.0023,3D,1.1522,True,0.0,,-0.0023,-0.0016
146776,B2Br12Lu7Tb1,61a8ceb43f,TbLu7(BBr6)2,"['B', 'Br', 'Tb', 'Lu']",22,673.2963,5.8307,m,Pm,6,monoclinic,-108.8946,-1.8005,-0.08,3D,0.0118,True,0.0,,-0.08,-0.0306
146794,As2Br12La1Pr7,61aae0b4e9,LaPr7(AsBr6)2,"['As', 'Br', 'La', 'Pr']",22,847.6989,4.376,m,Pm,6,monoclinic,-112.6633,-2.0591,-0.0248,3D,,True,0.0,,-0.0248,-0.0183
146871,Cl1Cu3S2,61b7984523,Cu3S2Cl,"['S', 'Cl', 'Cu']",6,111.4072,4.3258,mm2,Imm2,44,orthorhombic,-25.7465,-0.5546,-0.0254,3D,0.0053,True,0.0,,-0.0254,-0.0154
146883,Cl18Nb4Ta2Y1,61b98490a2,YTa2(Nb2Cl9)2,"['Cl', 'Y', 'Nb', 'Ta']",25,675.5717,3.5901,1,P1,1,triclinic,-150.9999,-1.8856,-0.0131,3D,0.1306,True,0.0,,-0.0131,-0.0126
146944,Eu1F28Tb3Tc4,61c1b5a34f,Tb3EuTc4F28,"['F', 'Tc', 'Eu', 'Tb']",36,538.3638,4.7892,1,P1,1,triclinic,-238.4797,-3.3145,-0.111,3D,,True,0.0,,-0.111,-0.101