Unnamed: 0,Composition,MaterialId,Reduced Formula,Elements,NSites,Volume,Density,Point Group,Space Group,Space Group Number,Crystal System,Corrected Energy,Formation Energy Per Atom,Decomposition Energy Per Atom,Dimensionality Cheon,Bandgap,Is Train,Decomposition Energy Per Atom All,Decomposition Energy Per Atom Relative,Decomposition Energy Per Atom MP,Decomposition Energy Per Atom MP OQMD
60167,Cd3Ho1Ir2O14Pr2,28152f7cd7,Pr2HoCd3(IrO7)2,"['O', 'Cd', 'Pr', 'Ho', 'Ir']",22,302.2672,7.6493,m,Pm,6,monoclinic,-150.7661,-2.132,-0.0717,3D,0.0047,False,0.0,,-0.0717,-0.0318
60187,Al2Ba2Ho2O14Zn6,281918ba6e,BaHoAlZn3O7,"['O', 'Al', 'Zn', 'Ba', 'Ho']",26,362.1651,5.8456,6mm,P6_3mc,186,hexagonal,-169.2426,-2.7661,-0.0088,intercalated ion,2.4893,True,0.0,,-0.0088,-0.0088
60222,Gd2In4O18Te2W1,282115922a,Gd2In4Te2WO18,"['O', 'In', 'Te', 'Gd', 'W']",27,364.3556,6.8399,2,C2,5,monoclinic,-209.6889,-2.3045,-0.0022,3D,2.1884,True,0.0,,-0.0022,-0.0001
60245,F1O18Pr2Pt6Sr2,2825818d87,Sr2Pr2Pt6O18F,"['O', 'F', 'Sr', 'Pr', 'Pt']",29,390.5039,8.2263,2,C2,5,monoclinic,-195.4565,-1.9005,-0.1196,intercalated ion,0.0035,True,0.0,,-0.1196,-0.102
60320,Cs6F16Ta2,2833053d3a,Cs3TaF8,"['F', 'Cs', 'Ta']",24,507.8314,4.7848,6mm,P6_3mc,186,hexagonal,-141.4452,-3.4072,-0.1991,intercalated ion,3.977,True,0.0,,-0.1991,-0.0524
60346,Cs2F5O1Ru1,28362a88b3,Cs2RuOF5,"['O', 'F', 'Ru', 'Cs']",9,197.7804,4.0122,4mm,I4mm,107,tetragonal,-47.9109,-2.4823,-0.0688,intercalated ion,0.3691,True,0.0,,-0.0688,-0.0376
60350,Al1Ho5O12Ru1,2837620c1d,Ho5AlRuO12,"['O', 'Al', 'Ru', 'Ho']",19,245.2737,7.7498,2,C2,5,monoclinic,-160.0163,-3.4057,-0.0191,3D,0.0032,True,0.0,,-0.0191,-0.0191
60381,Ce1F28Hf4La3,283c1084ba,La3CeHf4F28,"['F', 'La', 'Ce', 'Hf']",36,614.1926,4.8739,1,P1,1,triclinic,-269.818,-4.3257,-0.0068,3D,,True,0.0,,-0.0068,-0.0057
60399,As4Cd2K4O14,283e6c8fe7,K2CdAs2O7,"['O', 'K', 'As', 'Cd']",24,443.7715,3.386,-42m,P-42_1m,113,tetragonal,-139.97,-1.9073,-0.0258,intercalated ion,2.6882,True,0.0,,-0.0258,-0.0233
60428,Ho1La2O14Ta2Tb3,28442cdcd0,La2Tb3HoTa2O14,"['O', 'La', 'Tb', 'Ho', 'Ta']",22,310.512,8.0505,m,Pm,6,monoclinic,-206.5922,-3.8749,-0.0249,3D,3.588,False,0.0,,-0.0249,-0.0244
60436,Br18Cs1Pr1Ta6,28453b5a2e,CsPr(TaBr3)6,"['Br', 'Cs', 'Pr', 'Ta']",26,822.9012,5.6456,3,R3,146,trigonal,-145.4617,-1.5067,-0.0174,intercalated ion,1.4666,True,-0.0,,-0.0174,-0.0162
60463,Cl16Ru4Se16,28496160d4,Ru(SeCl)4,"['Cl', 'Se', 'Ru']",36,1085.0208,3.4203,2,P2_1,4,monoclinic,-152.4358,-0.8285,-0.1183,0D,,True,0.0,,-0.1183,-0.1083
60465,Gd4O12Rh2Y1,28498be6a2,Gd4Y(RhO6)2,"['O', 'Y', 'Rh', 'Gd']",19,262.8763,7.0477,m,Cm,8,monoclinic,-193.997,-3.0064,-0.0456,3D,,True,0.0,,-0.0456,-0.0335
60493,C4Cl1Pr4S1,284db9f20c,Pr4C4SCl,"['C', 'S', 'Cl', 'Pr']",10,201.7781,5.5894,2,C2,5,monoclinic,-71.8236,-0.9808,-0.0123,3D,0.0138,True,0.0,,-0.0123,-0.0065
60498,F66Li2Tc16,284e2268d3,LiTc8F33,"['Li', 'F', 'Tc']",84,1430.7687,3.2912,3m,P31c,159,trigonal,-497.7958,-2.4053,-0.0404,intercalated ion,,True,0.0,,-0.0404,-0.0255
60499,Au4Cl24Sm3Tb1,284e3a4f2a,TbSm3(AuCl6)4,"['Cl', 'Sm', 'Tb', 'Au']",32,1000.5251,3.7322,1,P1,1,triclinic,-132.432,-1.7557,-0.0576,3D,,True,0.0,,-0.0576,-0.0345
60539,O12Pd1Pr5Sb1,2855934f70,Pr5SbPdO12,"['O', 'Pd', 'Sb', 'Pr']",19,288.9948,6.4625,2,C2,5,monoclinic,-150.4797,-3.0469,-0.0555,3D,,True,-0.0,,-0.0555,-0.0445
60607,Cs2O24P8Tl2,286059e254,CsTl(PO3)4,"['O', 'P', 'Cs', 'Tl']",36,568.5792,3.8152,2,P2_1,4,monoclinic,-256.2663,-2.436,-0.0567,intercalated ion,,True,0.0,,-0.0567,-0.0567
60636,F20Tl11Y1,2864422677,YTl11F20,"['F', 'Y', 'Tl']",32,600.8242,7.5094,m,Pm,6,monoclinic,-147.2347,-2.3925,-0.0633,intercalated ion,,True,0.0,,-0.0633,-0.0084
60651,O18Tl2V6,2866eba433,TlV3O9,"['O', 'V', 'Tl']",26,483.9895,3.4392,m,Cc,9,monoclinic,-202.4847,-2.0844,-0.0226,3D,,True,-0.0,,-0.0226,-0.0132
60697,O4Se3Sm3Y1,286f2e2839,Sm3YSe3O4,"['O', 'Se', 'Y', 'Sm']",11,211.7461,6.5942,mm2,Amm2,38,orthorhombic,-85.5863,-3.1531,-0.0917,3D,1.0928,True,0.0,,-0.0917,-0.0208
60698,Cl10Hg8Pu2Se4,286f3c6821,PuHg4Se2Cl5,"['Cl', 'Se', 'Hg', 'Pu']",24,765.304,5.9953,2,P2_1,4,monoclinic,-93.6824,-1.2603,-0.033,3D,,True,0.0,,-0.033,-0.0241
60713,Bi1O26Sb9Sm2,287142e2c5,Sm2BiSb9O26,"['O', 'Sb', 'Sm', 'Bi']",38,568.7039,5.9026,m,Pm,6,monoclinic,-260.5725,-2.1431,-0.0254,3D,1.5396,True,0.0,,-0.0253,-0.0253
60739,Br20Ce1Cs2La3Rb6,2875efc44e,Cs2Rb6La3CeBr20,"['Br', 'Rb', 'Cs', 'La', 'Ce']",32,1231.2949,3.9562,1,P1,1,triclinic,-133.5673,-2.2629,-0.0053,intercalated ion,0.1722,True,0.0,,-0.0053,-0.0052
60740,Ac2O15Se4,2876180167,Ac2Se4O15,"['O', 'Se', 'Ac']",21,385.7659,4.3468,1,P1,1,triclinic,-135.9604,-1.8817,-0.3098,3D,,True,0.0,,-0.3098,-0.3084
60742,Ho5Mo1O12Tc1,28764b5b93,Ho5TcMoO12,"['O', 'Mo', 'Tc', 'Ho']",19,252.8109,7.9515,2,C2,5,monoclinic,-167.3873,-3.3628,-0.0255,3D,0.658,True,0.0,,-0.0255,-0.0177
60749,Ag6F18Ru1Tc2,28780ce287,Tc2Ag6RuF18,"['F', 'Tc', 'Ru', 'Ag']",27,453.6585,4.7081,3,P3,143,trigonal,-132.2191,-1.8823,-0.1053,3D,,True,0.0,,-0.1053,-0.1039
60822,Al2Eu4Ga2Ge4O20,288465c7ce,Eu2AlGa(GeO5)2,"['O', 'Al', 'Ga', 'Ge', 'Eu']",32,371.6377,6.3082,222,P2_12_12,18,orthorhombic,-260.2057,-2.7512,-0.0456,3D,0.0032,True,0.0,,-0.0456,-0.0198
60840,Br6Ce4La5Si14Sm3,2887c29c49,La5Ce4Sm3(Si7Br3)2,"['Si', 'Br', 'La', 'Ce', 'Sm']",32,807.8514,5.3005,mm2,Pmm2,25,orthorhombic,-185.2557,-1.1535,-0.0244,3D,inf,True,0.0,,-0.0244,-0.0084
60864,F30Hf4Lu2Zr2,288b2c51d9,LuHf2ZrF15,"['F', 'Zr', 'Lu', 'Hf']",38,502.7974,5.9985,2,C2,5,monoclinic,-282.7815,-4.1966,-0.0092,3D,,True,0.0,,-0.0092,-0.0092
60866,Li2O14P4Rh2,288b6535c6,LiP2RhO7,"['Li', 'O', 'P', 'Rh']",22,267.8516,3.5187,2,P2_1,4,monoclinic,-160.2734,-2.3092,-0.0028,intercalated ion,1.4188,True,0.0,,-0.0028,-0.0028
60935,Al2Bi12Ga2O44Sb8,2897d196a5,AlGaBi6(Sb2O11)2,"['O', 'Al', 'Ga', 'Sb', 'Bi']",68,883.1641,8.2339,1,P1,1,triclinic,-444.9841,-1.9708,0.0,,,,0.0,,0.0,0.0
60962,As4Gd2K6O16,289d129fa3,K3Gd(AsO4)2,"['O', 'K', 'As', 'Gd']",28,433.9508,4.2275,2,P2_1,4,monoclinic,-199.6752,-2.3934,-0.0297,intercalated ion,,False,-0.0,,-0.0297,-0.0173
60975,Ba1K4O6Te1,289ef965c6,K4BaTeO6,"['O', 'K', 'Te', 'Ba']",12,222.3681,3.8631,2,C2,5,monoclinic,-62.9794,-1.9823,-0.1454,intercalated ion,1.7213,True,0.0,,-0.1454,-0.0301
61002,Br18Cs2Li2Nb1Ta5,28a2f9b5e0,Cs2Li2Ta5NbBr18,"['Li', 'Br', 'Nb', 'Cs', 'Ta']",28,836.2014,5.3927,1,P1,1,triclinic,-146.026,-1.4844,-0.0216,intercalated ion,1.295,True,0.0,,-0.0216,-0.0207
61060,O14P4Sb1U1,28adc3fe02,USb(P2O7)2,"['O', 'P', 'Sb', 'U']",20,327.9109,3.5837,1,P1,1,triclinic,-161.3988,-2.7527,-0.0199,3D,0.7855,True,0.0,,-0.0199,-0.0199
61106,Ce7F30I1,28b5a64f60,Ce7IF30,"['F', 'I', 'Ce']",38,611.9485,4.5524,32,R32,155,trigonal,-263.0,-4.2789,-0.4147,3D,,True,0.0,,-0.4147,-0.4147
61115,Ac3F28La1Re4,28b6eeee0e,Ac3LaRe4F28,"['F', 'La', 'Re', 'Ac']",36,638.4054,5.4536,1,P1,1,triclinic,-240.9099,-3.342,-0.0861,3D,1.5713,True,0.0,,-0.0861,-0.0415
61125,Ac1F14Sm1W2,28b7fd817c,AcSm(WF7)2,"['F', 'Sm', 'W', 'Ac']",18,329.1468,5.1006,1,P1,1,triclinic,-125.4415,-3.5514,-0.1223,3D,,True,0.0,,-0.1223,-0.0841
61158,Ca8Ge1O16V3,28bea2ab12,Ca8V3GeO16,"['O', 'Ca', 'V', 'Ge']",28,421.4319,3.1604,m,Pm,6,monoclinic,-212.1345,-3.0374,-0.0072,intercalated ion,1.51,True,0.0,,-0.0072,-0.0059
61160,Br6Cl1Nb3S1,28bec533dc,Nb3SBr6Cl,"['S', 'Cl', 'Br', 'Nb']",11,306.8669,4.4679,m,Cm,8,monoclinic,-61.938,-1.4389,-0.011,2D,0.741,True,0.0,,-0.011,-0.0006
61161,Ag1Cu4O8Pr1,28becf2147,PrCu4AgO8,"['O', 'Cu', 'Ag', 'Pr']",14,164.7076,6.3611,-4,I-4,82,tetragonal,-83.1993,-1.4004,-0.029,3D,0.3205,True,0.0,,-0.029,-0.0268
61168,Cu3F18Na6,28bfc56995,Na2CuF6,"['F', 'Na', 'Cu']",27,381.6109,2.9178,32,P321,150,trigonal,-113.8558,-2.1932,-0.1183,intercalated ion,0.0004,False,0.0,,-0.1183,-0.0574
61193,F28Hf2La4V2,28c412364f,La2HfVF14,"['F', 'V', 'La', 'Hf']",36,598.2306,4.2925,2,P2_1,4,monoclinic,-256.0551,-4.0197,-0.0177,3D,2.0618,True,0.0,,-0.0177,-0.0172
61263,Br16Ga4Hg1Sn1,28d1019a2a,Ga4SnHgBr16,"['Ga', 'Br', 'Sn', 'Hg']",22,883.3128,3.5279,1,P1,1,triclinic,-68.5614,-1.1793,-0.0104,1D,,True,0.0,,-0.0104,-0.0104
61274,Ac1Au4Cl24Sm3,28d2b05765,AcSm3(AuCl6)4,"['Cl', 'Sm', 'Au', 'Ac']",32,1009.9883,3.8091,1,P1,1,triclinic,-132.5577,-1.7756,-0.0504,3D,1.6668,True,0.0,,-0.0504,-0.0303
61371,Bi3Ho1Mo6O24,28e4735748,HoBi3(MoO4)6,"['O', 'Mo', 'Ho', 'Bi']",34,621.8134,4.6773,m,Cm,8,monoclinic,-271.3716,-2.0969,-0.0074,3D,3.3624,True,0.0,,-0.0074,-0.0074
61379,Cd2La1O12Ru2Sr3,28e560f2f0,Sr3LaCd2(RuO6)2,"['O', 'Sr', 'Ru', 'Cd', 'La']",20,279.6706,6.0605,1,P1,1,triclinic,-135.9729,-2.3099,-0.0276,intercalated ion,0.005,True,0.0,,-0.0276,-0.0129
61398,Cl2Ho1Pb6Y9,28e85047d0,Y9Ho(Pb3Cl)2,"['Cl', 'Y', 'Ho', 'Pb']",18,489.1748,7.7369,32,P312,149,trigonal,-105.363,-0.9227,-0.0273,3D,0.0025,True,0.0,,-0.0273,-0.019
61399,Br18In4Na2Th3,28e8712fb6,Na2Th3(In2Br9)2,"['Na', 'Br', 'In', 'Th']",27,1092.2295,4.0131,m,Cm,8,monoclinic,-113.238,-1.7733,-0.0124,intercalated ion,2.9361,True,-0.0,,-0.0124,-0.0123
61481,Ba1Ca1O6Os1,28f70a0f4d,BaCaOsO6,"['O', 'Ca', 'Ba', 'Os']",9,154.8025,4.9733,32,P312,149,trigonal,-66.0608,-2.3579,-0.0672,intercalated ion,1.2759,True,-0.0,,-0.0672,-0.0589
61496,Lu1O8Pm2U1,28f8c5a9d6,Pm2LuUO8,"['O', 'Pm', 'Lu', 'U']",12,158.9674,8.6804,-42m,I-4m2,119,tetragonal,-109.2558,-3.6966,-0.0212,3D,,False,-0.0,,-0.0212,-0.0206
61538,Br6Li2O18Ti1,29007ad660,Li2Ti(BrO3)6,"['Li', 'O', 'Ti', 'Br']",27,411.8241,3.3433,3,P3,143,trigonal,-135.0134,-0.9043,-0.1258,intercalated ion,2.851,True,0.0,,-0.1258,-0.1244
61556,O13Pb4Sc1Ta2W1,290386d350,ScTa2Pb4WO13,"['O', 'Sc', 'Ta', 'W', 'Pb']",21,307.3219,8.7937,m,Cm,8,monoclinic,-176.4882,-2.5861,-0.0268,3D,0.4702,True,0.0,,-0.0268,-0.0265
61560,O16Os4Pr1Tm3,2903e7eed9,PrTm3(OsO4)4,"['O', 'Pr', 'Tm', 'Os']",24,300.8019,9.1893,1,P1,1,triclinic,-203.2935,-2.542,-0.0404,3D,0.0724,True,0.0,,-0.0404,-0.0241
61644,Cl2Pb5Sn1Y10,2913354d5e,Y10SnPb5Cl2,"['Cl', 'Y', 'Sn', 'Pb']",18,486.8415,7.2128,mm2,Amm2,38,orthorhombic,-108.1216,-0.9548,-0.0267,3D,0.0033,True,0.0,,-0.0267,-0.023
61650,Cl18Nb5Ta1Zr1,29142b597c,ZrTaNb5Cl18,"['Cl', 'Zr', 'Nb', 'Ta']",25,661.7357,3.45,1,P1,1,triclinic,-149.5275,-1.8137,-0.0164,3D,0.7605,True,0.0,,-0.0164,-0.0155
61697,Ir2O14Pr2Tb3Tm1,291d01b65a,Tb3Pr2Tm(IrO7)2,"['O', 'Pr', 'Tb', 'Tm', 'Ir']",22,297.6637,8.5684,m,Pm,6,monoclinic,-182.9648,-3.0944,-0.0459,3D,0.0025,True,0.0,,-0.0459,-0.037
61729,Gd1Ho4O24W4Y3,2921f8942e,GdY3Ho4(WO6)4,"['O', 'Y', 'Gd', 'Ho', 'W']",36,463.8109,7.8873,2,P2,3,monoclinic,-341.3529,-3.3046,-0.0034,3D,3.4297,False,0.0,,-0.0034,-0.0024
61735,Ac1Au4Cl24Pr3,2922f711aa,AcPr3(AuCl6)4,"['Cl', 'Pr', 'Au', 'Ac']",32,1037.7925,3.6617,1,P1,1,triclinic,-133.0928,-1.7865,-0.0246,3D,1.6823,True,0.0,,-0.0246,-0.0246
61815,Nb1O24Pr8Ru3,2930aca5d5,Pr8Nb(RuO8)3,"['O', 'Nb', 'Ru', 'Pr']",36,530.5316,5.97,1,P1,1,triclinic,-299.2744,-2.8987,-0.0235,3D,0.0037,False,0.0,,-0.0235,-0.0235
61952,F28Lu3Tb1V4,29484d1f61,TbLu3V4F28,"['F', 'V', 'Tb', 'Lu']",36,501.9621,4.696,1,P1,1,triclinic,-241.0177,-3.6934,-0.0417,3D,2.0021,True,0.0,,-0.0417,-0.0224
62062,Bi1O14P4Sb1,295acfdc2d,BiSb(P2O7)2,"['O', 'P', 'Sb', 'Bi']",20,296.9441,3.7949,1,P1,1,triclinic,-147.2391,-2.4148,-0.0016,3D,2.4417,True,0.0,,-0.0016,-0.0016
62090,La3O19Pt6Sr1,295f90552f,SrLa3Pt6O19,"['O', 'Sr', 'La', 'Pt']",29,392.489,8.372,3,R3,146,trigonal,-203.1269,-1.9377,-0.0555,intercalated ion,0.0006,True,0.0,,-0.0555,-0.0475
62098,F20K2Tb5Y1,2960f3cd47,K2Tb5YF20,"['F', 'K', 'Y', 'Tb']",28,404.177,5.5123,4mm,I4mm,107,tetragonal,-190.2326,-4.2909,0.0,,,,0.0,,0.0,0.0
62133,Cl18Nb5Ta1Y1,296808d72c,YTaNb5Cl18,"['Cl', 'Y', 'Nb', 'Ta']",25,675.5048,3.374,1,P1,1,triclinic,-149.1902,-1.8834,-0.0146,intercalated ion,,True,0.0,,-0.0146,-0.0143
62160,Bi5O22Os4Sm3,296c65e895,Sm3Bi5(Os2O11)2,"['O', 'Sm', 'Os', 'Bi']",34,485.2575,8.9276,1,P1,1,triclinic,-259.1531,-2.1113,-0.0547,3D,0.0017,False,-0.0,,-0.0547,-0.0532
62173,La1O6Pt1Sb1,296dc96962,LaSbPtO6,"['O', 'Sb', 'La', 'Pt']",9,128.7056,7.1185,32,P312,149,trigonal,-65.0862,-2.2514,-0.0418,3D,2.3324,True,0.0,,-0.0418,-0.0416
62248,As1Ce2O20P3U2,2978a4a5a5,Ce2U2AsP3O20,"['O', 'P', 'As', 'Ce', 'U']",28,443.303,4.6603,1,P1,1,triclinic,-241.7281,-3.1222,-0.0178,3D,,True,0.0,,-0.0178,-0.0178
62287,Br1I1Pd1Se6,297c9b445d,PdSe6IBr,"['Se', 'Br', 'Pd', 'I']",9,284.0074,4.6014,1,P1,1,triclinic,-34.0694,-0.5281,-0.2183,1D,0.9368,True,0.0,,-0.2183,-0.0814
62303,Br18Eu1Rb1Ta6,297fdd3558,RbEu(TaBr3)6,"['Br', 'Rb', 'Eu', 'Ta']",26,818.4373,5.6026,3,R3,146,trigonal,-150.7069,-1.4932,-0.0188,intercalated ion,,True,0.0,,-0.0188,-0.0132
62309,As4Br12Ca11Sr1,2980ecb98f,SrCa11(AsBr3)4,"['Ca', 'As', 'Br', 'Sr']",28,883.4221,3.359,2,C2,5,monoclinic,-118.912,-2.0315,-0.0154,intercalated ion,1.9859,True,0.0,,-0.0154,-0.0098
62325,Bi3La1O14Tm4,2982eed9da,LaTm4Bi3O14,"['O', 'La', 'Tm', 'Bi']",22,315.2567,8.773,1,P1,1,triclinic,-169.0506,-2.9668,-0.0588,3D,,True,0.0,,-0.0588,-0.0348
62326,Cd1Lu5O12Pu1,2983516878,Lu5PuCdO12,"['O', 'Cd', 'Lu', 'Pu']",19,258.4349,9.1448,1,P1,1,triclinic,-164.7389,-3.5562,-0.1225,3D,,True,0.0,,-0.1225,-0.1214
62330,Br2La6Pr3Tb1Tl6,2983e023a0,La6TbPr3(Tl3Br)2,"['Br', 'La', 'Pr', 'Tb', 'Tl']",18,566.7385,8.2075,32,P312,149,trigonal,-78.3773,-0.6856,-0.0363,3D,,True,0.0,,-0.0363,-0.0329
62354,Ba1O18P6Zr1,2986f3ab2a,BaZr(PO3)6,"['O', 'P', 'Zr', 'Ba']",26,489.8701,2.3809,32,P312,149,trigonal,-207.5216,-2.9043,-0.0016,intercalated ion,4.5215,True,0.0,,-0.0016,-0.0005
62383,F22In1Np2Zr3,298af463af,Zr3Np2InF22,"['F', 'Zr', 'In', 'Np']",28,439.6552,4.8362,m,Cm,8,monoclinic,-202.6548,-3.7969,-0.0079,3D,,True,0.0,,-0.0079,-0.0054
62394,As1O2P1Pr2Rh2,298cfbea9e,Pr2AsP(RhO)2,"['O', 'P', 'As', 'Rh', 'Pr']",8,142.1199,7.3086,4mm,P4mm,99,tetragonal,-61.1789,-2.115,-0.0168,3D,0.0015,True,0.0,,-0.0168,-0.0035
62413,O12Rh1Se1Y5,2990fc70d4,Y5RhSeO12,"['O', 'Se', 'Y', 'Rh']",19,252.5856,5.3802,2,C2,5,monoclinic,-160.7921,-3.0644,-0.0276,3D,1.4326,True,0.0,,-0.0276,-0.0209
62418,F28Pt3Tb3Tc1Tm1,2991450b6f,Tb3TmTcPt3F28,"['F', 'Tc', 'Tb', 'Tm', 'Pt']",36,527.3733,5.8595,1,P1,1,triclinic,-209.7772,-3.0362,-0.0558,3D,,True,0.0,,-0.0558,-0.0125
62457,F3In1S24,29979175e5,In(S8F)3,"['F', 'S', 'In']",28,994.2495,1.5722,3m,R3m,160,trigonal,-128.5286,-0.7417,-0.3368,0D,,True,0.0,,-0.3368,-0.3367
62489,Cl3Lu1S24,299d264899,Lu(S8Cl)3,"['S', 'Cl', 'Lu']",28,858.1696,2.0334,3m,R3m,160,trigonal,-130.4103,-0.7525,-0.3728,0D,,True,0.0,,-0.3728,-0.3604
62516,Br12La1Na1Ru1Sm5,29a2447210,NaLaSm5RuBr12,"['Na', 'Br', 'Ru', 'La', 'Sm']",20,710.4607,4.6129,1,P1,1,triclinic,-98.0618,-1.9646,-0.0262,intercalated ion,,True,0.0,,-0.0262,-0.0261
62554,Al4Br16Pb2,29a89be842,Al2PbBr8,"['Al', 'Br', 'Pb']",22,852.6441,3.5071,m,Pc,7,monoclinic,-81.3535,-1.4889,-0.0343,2D,,True,0.0,,-0.0343,-0.0314
62558,O16Os3Pb4Ti1,29a9dc4aa5,TiOs3(PbO4)4,"['O', 'Ti', 'Os', 'Pb']",24,364.0384,7.7697,1,P1,1,triclinic,-178.3836,-1.7828,-0.0398,3D,0.0006,False,-0.0,,-0.0398,-0.0112
62566,La2Na2Nb8O16,29abe6ac68,NaLaNb4O8,"['O', 'Na', 'Nb', 'La']",28,370.1516,5.9353,mm2,Pma2,28,orthorhombic,-254.5898,-2.9316,-0.0307,intercalated ion,1.2639,True,0.0,,-0.0307,-0.0306
62580,F28Ho1Lu3Ru4,29ad47a479,HoLu3Ru4F28,"['F', 'Ru', 'Ho', 'Lu']",36,512.8354,5.2651,1,P1,1,triclinic,-221.1587,-3.1221,-0.039,3D,,True,0.0,,-0.039,-0.0157
62591,Br10Pr3Ru1Sm3,29aee484b4,Pr3Sm3RuBr10,"['Br', 'Ru', 'Pr', 'Sm']",17,610.3312,4.8263,1,P1,1,triclinic,-86.4346,-1.8996,-0.0139,3D,0.2524,True,-0.0,,-0.0139,-0.0139
62592,Br2Os2Pr4Si2,29aeedfbd4,Pr2SiOsBr,"['Si', 'Br', 'Pr', 'Os']",10,263.7547,7.3035,6mm,P6_3mc,186,hexagonal,-66.2315,-1.0529,-0.0652,3D,,True,-0.0,,-0.0652,-0.0547
62606,Br2Ga1Ir1La2,29b1a9c096,La2GaIrBr2,"['Ga', 'Br', 'La', 'Ir']",6,184.9536,6.2807,3m,P3m1,156,trigonal,-34.2249,-1.5354,-0.0413,2D,0.0043,True,0.0,,-0.0413,-0.0046
62629,Cl1Pr16Si15Sm4,29b6ac42d0,Pr16Sm4Si15Cl,"['Si', 'Cl', 'Pr', 'Sm']",36,955.5153,5.757,1,P1,1,triclinic,-204.7787,-0.7273,-0.0149,3D,inf,True,0.0,,-0.0149,-0.0119
62651,O16Rb2Rh2Sn6,29b9fa7694,RbSn3RhO8,"['O', 'Rb', 'Rh', 'Sn']",26,365.0368,6.1183,1,Cm,8,monoclinic,-169.5867,-1.9105,-0.0392,inf,0.4321,False,0.0,,-0.0392,-0.0228
62668,K4Nb8O34P5,29bdc2ebdb,K4Nb8P5O34,"['O', 'P', 'K', 'Nb']",51,758.4322,3.4998,-42m,P-4m2,115,tetragonal,-429.7662,-2.9258,-0.002,intercalated ion,,False,0.0,,-0.002,-0.002
62821,F37Sm1,29d7f0cb38,SmF37,"['F', 'Sm']",38,691.819,2.0481,1,P1,1,triclinic,-105.8622,-0.8005,-0.3325,intercalated molecule,,True,0.0,,-0.3325,-0.3325
62830,Bi3O14Sm3Tb2,29da490d36,Tb2Sm3Bi3O14,"['O', 'Sm', 'Tb', 'Bi']",22,330.0923,8.1488,1,P1,1,triclinic,-168.1425,-2.8989,-0.0404,3D,1.507,True,0.0,,-0.0404,-0.0404
62832,Bi2O16Pr2Te2W2,29da88adab,PrBiTeWO8,"['O', 'Te', 'Pr', 'W', 'Bi']",24,352.0577,7.446,2,C2,5,monoclinic,-184.6282,-2.3298,-0.0018,3D,2.9771,True,0.0,,-0.0018,-0.0018
62841,Cl2In6Tm1Y9,29dc9b6f09,Y9Tm(In3Cl)2,"['Cl', 'Y', 'In', 'Tm']",18,485.0071,5.9193,32,P312,149,trigonal,-97.3601,-0.8044,-0.0412,3D,0.0102,True,0.0,,-0.0412,-0.0354
62849,O24P6Pt1Ta3,29dd94bbd1,Ta3P6PtO24,"['O', 'P', 'Ta', 'Pt']",34,496.0553,4.3777,1,P1,1,triclinic,-286.8728,-2.7646,-0.0079,intercalated ion,0.706,True,-0.0,,-0.0079,-0.0079
62883,Br8Hg3K2,29e453e222,K2Hg3Br8,"['K', 'Br', 'Hg']",13,519.2986,4.2183,m,Cm,8,monoclinic,-31.8315,-1.2003,-0.0003,intercalated ion,2.0692,True,0.0,,-0.0003,-0.0003
62921,Ir2O12Os2Rh2,29e9f0a193,IrOsRhO6,"['O', 'Rh', 'Os', 'Ir']",18,197.4681,9.7773,4mm,P4_2nm,102,tetragonal,-138.4701,-1.3464,-0.0713,3D,0.0063,False,-0.0,,-0.0713,-0.0674
62928,O48Sb3V17,29eb7e6f7a,V17(SbO16)3,"['O', 'V', 'Sb']",68,1042.3229,3.185,1,P1,1,triclinic,-558.4545,-2.2667,-0.0144,3D,,True,0.0,,-0.0144,-0.0094
62937,Br2Ho5In6Tb5,29edb41ac1,Tb5Ho5(In3Br)2,"['Br', 'In', 'Tb', 'Ho']",18,495.0655,8.2781,mm2,Amm2,38,orthorhombic,-78.2803,-0.6896,-0.0251,3D,0.004,True,-0.0,,-0.0251,-0.0123
62944,Ca9F8O48Sr3Ta16,29ef111f7f,Sr3Ca9Ta16(O6F)8,"['O', 'F', 'Ca', 'Sr', 'Ta']",84,1183.8655,6.2259,1,P1,1,triclinic,-767.9634,-3.5991,-0.0018,intercalated ion,,False,0.0,,-0.0018,-0.0018
63003,Ca3O12Sm1Ta1V3,29f9bf5b29,Ca3SmTaV3O12,"['O', 'Ca', 'V', 'Sm', 'Ta']",20,238.2659,5.55,1,P1,1,triclinic,-172.8796,-3.183,-0.0078,intercalated ion,1.1921,True,0.0,,-0.0078,-0.0032
63093,As1Ca2O7V1,2a0b9f9834,Ca2VAsO7,"['O', 'Ca', 'V', 'As']",11,167.3651,3.1552,m,Cm,8,monoclinic,-82.3715,-2.7256,-0.0151,intercalated ion,3.5614,True,0.0,,-0.0151,-0.0089
63110,Bi1Br2In5Pr6Tb4,2a0e122b4c,Tb4Pr6In5BiBr2,"['Br', 'In', 'Pr', 'Tb', 'Bi']",18,539.6316,7.4591,mm2,Amm2,38,orthorhombic,-81.9064,-0.7645,-0.0158,3D,0.0009,True,0.0,,-0.0158,-0.0139
63111,Ac3Br1N13P6,2a0e63b275,Ac3P6BrN13,"['N', 'P', 'Br', 'Ac']",23,349.0983,5.3695,3m,R3m,160,trigonal,-177.8329,-0.9991,-0.1986,3D,,True,0.0,,-0.1986,-0.1974
63168,Cs3Li1O16Sn7,2a16a33bcf,Cs3LiSn7O16,"['Li', 'O', 'Sn', 'Cs']",27,468.5992,5.2893,1,P1,1,triclinic,-167.261,-2.053,-0.0006,intercalated ion,1.4935,True,-0.0,,-0.0006,-0.0
63208,Al3Ba8Ga1O20Y4,2a1e613798,Ba8Y4Al3GaO20,"['O', 'Al', 'Ga', 'Y', 'Ba']",36,603.1483,5.2995,1,P1,1,triclinic,-275.124,-3.3523,-0.0065,intercalated ion,3.7504,True,0.0,,-0.0065,-0.0064
63265,O8Ti1W1Y2,2a28eb128d,Y2TiWO8,"['O', 'Ti', 'Y', 'W']",12,148.6154,6.0059,2,P2,3,monoclinic,-113.5148,-3.3454,-0.0039,3D,3.2491,True,0.0,,-0.0039,-0.0039
63276,F10Se1,2a2a8dd38e,SeF10,"['F', 'Se']",11,209.7762,2.1289,1,P1,1,triclinic,-38.2495,-1.4217,-0.4794,0D,,True,-0.0,,-0.4794,-0.1659
63309,Mg3O16Pt3Ti1Zn5,2a3027b530,Mg3TiZn5Pt3O16,"['O', 'Mg', 'Ti', 'Zn', 'Pt']",28,319.2051,6.7059,1,P1,1,triclinic,-172.5242,-2.0053,-0.0139,3D,,True,0.0,,-0.0139,-0.0139
63318,Br3Np1S24,2a31753ae3,Np(S8Br)3,"['S', 'Br', 'Np']",28,816.8862,2.5334,3m,R3m,160,trigonal,-135.6374,-0.6609,-0.4028,0D,,False,0.0,,-0.4028,-0.387
63411,Cl20In8Np2Pr2,2a4338e0af,PrNp(In2Cl5)2,"['Cl', 'In', 'Pr', 'Np']",32,951.683,4.1587,mm2,Pmc2_1,26,orthorhombic,-152.8428,-1.825,-0.0099,intercalated ion,,True,0.0,,-0.0099,-0.0097
63445,Cl12Ir3Pd1,2a486ad917,Ir3PdCl12,"['Cl', 'Pd', 'Ir']",16,397.896,4.6261,2,C2,5,monoclinic,-68.811,-0.9333,-0.0471,3D,0.003,True,0.0,,-0.0472,-0.0071