Unnamed: 0,Composition,MaterialId,Reduced Formula,Elements,NSites,Volume,Density,Point Group,Space Group,Space Group Number,Crystal System,Corrected Energy,Formation Energy Per Atom,Decomposition Energy Per Atom,Dimensionality Cheon,Bandgap,Is Train,Decomposition Energy Per Atom All,Decomposition Energy Per Atom Relative,Decomposition Energy Per Atom MP,Decomposition Energy Per Atom MP OQMD
28417,F28Ho4Pt1Zr3,12eb673736,Ho4Zr3PtF28,"['F', 'Zr', 'Ho', 'Pt']",36,552.9917,4.986,1,P1,1,triclinic,-244.3038,-3.9094,-0.0042,3D,2.6139,True,0.0,,-0.0042,-0.0023
28426,F8H4Si1,12ec11d0d1,SiH4F8,"['H', 'F', 'Si']",13,165.5353,1.8468,1,P1,1,triclinic,-65.7756,-2.4221,-0.0427,0D,7.4326,False,0.0,,-0.0427,-0.028
28523,Br15Pu3Se1Th3,12ff88804a,Pu3Th3SeBr15,"['Se', 'Br', 'Th', 'Pu']",22,825.5194,5.4424,mm2,Imm2,44,orthorhombic,-140.8555,-2.1709,-0.1601,3D,0.0015,False,0.0,,-0.1601,-0.1428
28596,Cu4Ho2La2O12,130b7f706a,LaHo(CuO3)2,"['O', 'Cu', 'La', 'Ho']",20,264.0939,6.6263,mm2,Pmc2_1,26,orthorhombic,-144.2438,-2.4717,-0.0244,3D,0.8657,True,0.0,,-0.0244,-0.0026
28623,Lu6O24Tb1W4Y1,13101b9383,TbYLu6(WO6)4,"['O', 'Y', 'Tb', 'Lu', 'W']",36,445.8278,9.0023,2,P2,3,monoclinic,-329.1464,-3.3427,-0.0074,3D,3.6349,True,0.0,,-0.0074,-0.0074
28688,Mo1O12Pr5Zr1,131f434e12,Pr5ZrMoO12,"['O', 'Zr', 'Mo', 'Pr']",19,297.8974,6.0407,2,C2,5,monoclinic,-169.1907,-3.5009,-0.0196,3D,1.8627,True,0.0,,-0.0196,-0.0137
28709,F30U7Zr1,13221b73fa,ZrU7F30,"['F', 'Zr', 'U']",38,627.6527,6.1574,32,R32,155,trigonal,-295.7266,-3.9683,-0.0444,3D,0.0007,True,0.0,,-0.0444,-0.044
28728,Ga2O16Pt6Rb2,1324628789,RbGaPt3O8,"['O', 'Ga', 'Rb', 'Pt']",26,337.8695,8.5363,m,Pc,7,monoclinic,-158.7919,-1.3531,-0.0799,inf,,True,0.0,,-0.0799,-0.052
28748,C2K10O10Pt2,132738bad4,K5PtCO5,"['C', 'O', 'K', 'Pt']",24,522.5974,3.0668,mm2,Aem2,39,orthorhombic,-131.0115,-1.6597,-0.0194,intercalated ion,0.0007,False,0.0,,-0.0194,-0.0008
28789,Ag1O6Rh1Te1,132d22afc9,AgTeRhO6,"['O', 'Rh', 'Ag', 'Te']",9,110.6837,6.5167,32,P312,149,trigonal,-53.0132,-1.1095,-0.0073,3D,,True,0.0,,-0.0073,-0.0071
28849,Ba8Nb2O18Sb2,1339727f0d,Ba4NbSbO9,"['O', 'Nb', 'Sb', 'Ba']",30,554.5093,5.438,6,P6_3,173,hexagonal,-221.424,-2.9516,-0.0146,intercalated ion,3.4313,False,0.0,,-0.0146,-0.0146
28858,Ho3Ir4O16Y1,133a9b0590,YHo3(IrO4)4,"['O', 'Y', 'Ho', 'Ir']",24,296.5466,9.0072,1,P1,1,triclinic,-191.8246,-2.3787,-0.058,3D,0.0048,False,0.0,,-0.058,-0.0335
28867,O13Os3Pb3Sc1Tl1,133b98d1ae,ScTlOs3Pb3O13,"['O', 'Sc', 'Os', 'Tl', 'Pb']",21,292.3889,9.3686,3m,R3m,160,trigonal,-155.4653,-1.7918,-0.0647,3D,0.0052,False,0.0,,-0.0647,-0.0192
28889,Cd1O20P4U3,133e693cab,U3Cd(PO5)4,"['O', 'P', 'Cd', 'U']",28,420.2315,5.0199,1,P1,1,triclinic,-238.5544,-2.9695,-0.0157,3D,,True,0.0,,-0.0157,-0.0151
28905,La4O20Si4Tb3Y1,1341c2fb0b,La4Tb3Y(SiO5)4,"['O', 'Si', 'Y', 'La', 'Tb']",32,477.9145,5.3982,1,P1,1,triclinic,-282.0998,-3.7914,-0.0082,3D,4.6314,True,0.0,,-0.0082,-0.0005
28915,O12Os1Tm5V1,1343fd560f,Tm5VOsO12,"['O', 'V', 'Tm', 'Os']",19,241.5747,8.7836,2,C2,5,monoclinic,-166.6558,-3.3995,-0.0166,3D,0.667,True,0.0,,-0.0166,-0.0166
28933,Br2C2Sm2Th2,1347371c4e,SmThCBr,"['C', 'Br', 'Sm', 'Th']",8,182.1472,8.6481,6mm,P6_3mc,186,hexagonal,-54.0721,-1.01,-0.0971,3D,0.0048,True,0.0,,-0.0971,-0.0117
28944,Cu2O4Pt6Sc16,13486fc49c,Sc8CuPt3O2,"['O', 'Sc', 'Cu', 'Pt']",28,470.5186,7.3438,mm2,Ima2,46,orthorhombic,-210.8018,-1.6095,-0.0035,3D,0.004,False,0.0,,-0.0035,-0.0034
28966,Ir3O24Pr8Se1,134cb65a18,Pr8Ir3SeO24,"['O', 'Se', 'Pr', 'Ir']",36,527.0938,6.8264,1,P1,1,triclinic,-282.8456,-2.6621,-0.0834,3D,0.209,True,0.0,,-0.0834,-0.0774
28978,Ho3O14Sm2Ta2Tm1,134fc76fa7,Sm2Ho3TmTa2O14,"['O', 'Sm', 'Ho', 'Tm', 'Ta']",22,297.5152,8.653,m,Pm,6,monoclinic,-205.6652,-3.8645,-0.0047,3D,3.4858,True,0.0,,-0.0047,-0.0047
28996,F28Tb1Tm3Zr4,13536eb46b,TbTm3Zr4F28,"['F', 'Zr', 'Tb', 'Tm']",36,556.3972,4.6634,1,P1,1,triclinic,-258.5545,-4.2439,-0.0051,3D,5.987,True,0.0,,-0.0051,-0.0044
29044,Cl2Ho1Pb6Tb9,135a33d3c5,Tb9Ho(Pb3Cl)2,"['Cl', 'Tb', 'Ho', 'Pb']",18,490.6049,9.8473,32,P312,149,trigonal,-88.5192,-0.903,-0.0386,3D,0.0017,False,0.0,,-0.0386,-0.0334
29071,Cl2Ho7Pb6Y3,1360a502d0,Y3Ho7(Pb3Cl)2,"['Cl', 'Y', 'Ho', 'Pb']",18,482.3018,9.4176,m,Pm,6,monoclinic,-93.4645,-0.8897,-0.0248,3D,0.0095,True,0.0,,-0.0248,-0.019
29141,Cu2O18P6Rb1,136f06aec4,RbCu2(PO3)6,"['O', 'P', 'Cu', 'Rb']",27,405.6674,2.8096,m,Cm,8,monoclinic,-193.468,-2.3239,-0.0157,intercalated ion,0.0021,True,0.0,,-0.0157,-0.0141
29173,Ce3F15La1,13749d00b0,LaCe3F15,"['F', 'La', 'Ce']",19,326.5032,4.2936,3m,R3m,160,trigonal,-130.4641,-4.1609,-0.0096,3D,2.3535,False,0.0,,-0.0096,-0.0096
29213,F8In3K8O32P8V5,137d91b6b1,K8V5In3P8(O4F)8,"['O', 'F', 'P', 'K', 'V', 'In']",64,918.4595,3.2972,1,P1,1,triclinic,-456.778,-2.7701,-0.0016,intercalated ion,,True,0.0,,-0.0016,-0.001
29222,As4Ca3Cd3O16,137eb08969,Ca3Cd3(AsO4)4,"['O', 'Ca', 'As', 'Cd']",26,405.4607,4.1493,1,P1,1,triclinic,-163.6075,-2.193,-0.0077,intercalated ion,2.4844,True,0.0,,-0.0077,-0.0042
29271,Br18Nb5Rb4Ta1,138803db89,Rb4TaNb5Br18,"['Br', 'Rb', 'Nb', 'Ta']",28,957.6236,4.2061,m,Cm,8,monoclinic,-138.2272,-1.517,-0.0036,intercalated ion,1.1334,True,-0.0,,-0.0036,-0.0036
29405,Ag1Bi1Br1Pr10Sn5,139f4fa386,Pr10AgSn5BiBr,"['Br', 'Ag', 'Sn', 'Pr', 'Bi']",18,551.5403,7.2239,m,Cm,8,monoclinic,-91.2807,-0.8369,-0.0253,3D,0.0006,True,0.0,,-0.0253,-0.0244
29415,F28Lu4Pt1Tc3,13a1d866c8,Lu4Tc3PtF28,"['F', 'Tc', 'Lu', 'Pt']",36,504.6843,5.6622,1,P1,1,triclinic,-225.9379,-3.255,-0.0577,3D,1.5161,True,0.0,,-0.0577,-0.0296
29441,Cd1Hg1Ir2O14Pr4,13a57ad407,Pr4CdHg(IrO7)2,"['O', 'Cd', 'Pr', 'Ir', 'Hg']",22,316.8981,7.7817,m,Pm,6,monoclinic,-158.7848,-2.3403,-0.0503,3D,0.0011,True,0.0,,-0.0503,-0.0259
29566,Ba6O12Rh2Tl1Y1,13b9a8affa,Ba6YTl(RhO6)2,"['O', 'Y', 'Rh', 'Ba', 'Tl']",22,348.1171,7.2269,32,R32,155,trigonal,-149.5918,-2.5066,-0.0298,intercalated ion,,True,0.0,,-0.0298,-0.0298
29568,Br2P1Pu1Y1,13ba1e2181,YPuPBr2,"['P', 'Br', 'Y', 'Pu']",5,149.5686,5.8141,3m,P3m1,156,trigonal,-38.6277,-1.8412,-0.0706,2D,0.004,True,0.0,,-0.0706,-0.0143
29627,Bi3F28Sm1Zr4,13c3d94921,SmZr4Bi3F28,"['F', 'Zr', 'Sm', 'Bi']",36,607.1333,4.5789,1,P1,1,triclinic,-236.014,-3.6643,-0.0097,3D,5.4203,True,0.0,,-0.0097,-0.0097
29652,Br2Ir1Si1Th2,13c8964466,Th2SiIrBr2,"['Si', 'Br', 'Ir', 'Th']",6,180.4863,7.7668,3m,P3m1,156,trigonal,-41.7797,-1.5691,-0.1183,2D,0.0168,False,0.0,,-0.1183,-0.0918
29669,Hg8La4O4,13caae1116,LaHg2O,"['O', 'La', 'Hg']",16,383.4145,9.6334,2,C2,5,monoclinic,-70.9129,-1.8092,-0.0494,3D,0.0029,True,0.0,,-0.0494,-0.047
29806,Au1Ir7O4Ti16,13e6f44018,Ti16Ir7AuO4,"['O', 'Ti', 'Ir', 'Au']",28,401.1223,9.8209,3m,R3m,160,trigonal,-249.8747,-1.379,-0.0466,3D,0.0011,True,0.0,,-0.0466,-0.012
29819,Br6Os1Pb1,13e9e3e136,OsPbBr6,"['Br', 'Os', 'Pb']",8,300.7283,4.8417,1,P1,1,triclinic,-31.4008,-0.8299,-0.0131,2D,,True,0.0,,-0.0131,-0.0088
29850,Cl2Ge4O8P2,13efb94ebe,Ge2PClO4,"['O', 'P', 'Cl', 'Ge']",16,264.3314,3.464,mm2,Ama2,40,orthorhombic,-103.9976,-1.9624,0.0074,,,,-0.0056,,-0.0056,-0.0056
29884,Cl3S24Th1,13f5f54030,Th(S8Cl)3,"['S', 'Cl', 'Th']",28,856.4481,2.1482,3m,R3m,160,trigonal,-132.8368,-0.7358,-0.315,0D,inf,True,0.0,,-0.315,-0.3004
29908,La5O16Os2Sr1,13f9088bbc,SrLa5(OsO8)2,"['O', 'Sr', 'La', 'Os']",24,346.0195,6.8078,m,Pm,6,monoclinic,-198.4835,-2.9372,-0.0255,intercalated ion,0.0037,True,0.0,,-0.0255,-0.0237
29930,B6Eu3O18Tb1Y2,13fcddb871,TbEu3Y2(BO3)6,"['B', 'O', 'Y', 'Eu', 'Tb']",30,345.488,5.5056,2,C2,5,monoclinic,-278.3966,-3.3605,-0.0563,3D,0.0038,True,0.0,,-0.0563,-0.0182
29940,Bi2Ho1O14Pr5,13feeb2d5a,Pr5Ho(BiO7)2,"['O', 'Pr', 'Ho', 'Bi']",22,344.1715,7.2922,1,P1,1,triclinic,-173.6561,-3.0963,-0.0516,3D,1.2854,True,0.0,,-0.0516,-0.0516
29954,Na2O14Pa2Se4,14010c1cca,NaPaSe2O7,"['O', 'Na', 'Se', 'Pa']",22,380.99,4.5672,mm2,Cmc2_1,36,orthorhombic,-155.834,-2.3138,-0.1153,intercalated ion,2.7677,True,-0.0,,-0.1153,-0.0867
29959,Cl18In1La1Nb6,14018b7bd4,LaNb6InCl18,"['Cl', 'Nb', 'In', 'La']",26,693.5075,3.4703,3,R3,146,trigonal,-149.2348,-1.8333,-0.0041,intercalated ion,,True,0.0,,-0.0041,-0.0036
30019,F6O4Te1,140ae143e2,Te(O2F3)2,"['O', 'F', 'Te']",11,221.0547,2.2955,4mm,I4mm,107,tetragonal,-51.6562,-1.5684,-0.0486,0D,1.2044,True,0.0,,-0.0486,-0.0434
30075,Br10Ir1Tb1Y5,141369f792,TbY5IrBr10,"['Br', 'Y', 'Tb', 'Ir']",17,568.7441,4.656,1,P1,1,triclinic,-95.5508,-1.9633,-0.0016,3D,,False,0.0,,-0.0016,-0.0012
30111,Bi1O12Ru1Tm5,1419130414,Tm5BiRuO12,"['O', 'Ru', 'Tm', 'Bi']",19,252.7233,8.8487,1,P1,1,triclinic,-155.7859,-3.2035,-0.0187,3D,,True,0.0,,-0.0187,-0.0187
30134,F4H2O4P2,141d1a7b92,PH(OF)2,"['H', 'O', 'F', 'P']",12,207.4952,1.6322,2,P2_1,4,monoclinic,-74.3454,-2.4413,-0.043,0D,6.0975,True,0.0,,-0.043,-0.03
30192,F28Ir3Os1Y4,1426721ad5,Y4Ir3OsF28,"['F', 'Y', 'Os', 'Ir']",36,535.2791,5.1325,1,P1,1,triclinic,-225.0029,-2.9965,-0.0291,3D,0.0011,True,0.0,,-0.0291,-0.0289
30198,Br18Mo1V2Zr1,142779942c,ZrV2MoBr18,"['V', 'Br', 'Zr', 'Mo']",22,879.9145,3.2597,1,P1,1,triclinic,-94.8307,-1.2639,-0.2493,0D,0.0004,False,0.0,,-0.2493,-0.0064
30204,Al1Br16Ga3Sr2,14286e1f3b,Sr2AlGa3Br16,"['Al', 'Ga', 'Br', 'Sr']",22,825.532,3.3991,1,P1,1,triclinic,-78.9744,-1.6625,-0.0275,intercalated ion,,True,0.0,,-0.0275,-0.0275
30211,Bi3Br2In3La5Pr5,142ae70965,La5Pr5In3Bi3Br2,"['Br', 'In', 'La', 'Pr', 'Bi']",18,570.3777,7.3664,m,Pm,6,monoclinic,-88.3785,-0.9219,-0.0031,3D,0.0011,True,0.0,,-0.0031,-0.0027
30240,Ba8Ir2O20Re1Sb1,1431271805,Ba8ReSb(IrO10)2,"['O', 'Sb', 'Ba', 'Re', 'Ir']",32,511.4885,6.8533,m,Pm,6,monoclinic,-227.8836,-2.4788,-0.064,intercalated ion,0.1015,True,0.0,,-0.064,-0.0493
30297,As1O20P4U3,143a2f7661,U3As(PO5)4,"['O', 'P', 'As', 'U']",28,415.6775,4.9251,1,P1,1,triclinic,-242.2928,-2.9695,-0.0301,3D,0.6467,True,0.0,,-0.0301,-0.0301
30312,Br1C4Pr4Te1,143c1d836a,Pr4TeC4Br,"['C', 'Br', 'Te', 'Pr']",10,226.3881,6.0086,2,C2,5,monoclinic,-69.1885,-0.8378,-0.0546,3D,0.0148,True,0.0,,-0.0546,-0.0362
30385,Cl16Ga4Pb1Sr1,1447e5d048,SrGa4PbCl16,"['Cl', 'Ga', 'Sr', 'Pb']",22,703.6367,2.6926,2,P2,3,monoclinic,-86.3451,-1.7843,-0.0364,intercalated ion,4.1059,True,0.0,,-0.0364,-0.0363
30413,Be1Br2Si1Zr2,144c04ed89,Zr2BeSiBr2,"['Be', 'Si', 'Br', 'Zr']",6,127.0503,4.9581,3m,P3m1,156,trigonal,-36.8514,-1.2196,-0.0374,intercalated ion,0.0096,True,0.0,,-0.0374,-0.0289
30424,O14Pr4Sm1Ta2Tm1,144d87e577,Pr4SmTmTa2O14,"['O', 'Pr', 'Sm', 'Tm', 'Ta']",22,322.809,7.5556,m,Pm,6,monoclinic,-204.2774,-3.7715,-0.0067,3D,3.5633,True,0.0,,-0.0067,-0.0057
30433,O16Pd1Pt3Zn8,144eb684cd,Zn8PdPt3O16,"['O', 'Zn', 'Pd', 'Pt']",28,325.4832,7.5044,2,P2,3,monoclinic,-152.6402,-1.4287,-0.0232,3D,1.0731,True,0.0,,-0.0232,-0.0157
30434,Ba8Ir3O20Re1,144ebe3a00,Ba8ReIr3O20,"['O', 'Ba', 'Re', 'Ir']",32,506.5795,7.1507,m,Pm,6,monoclinic,-229.8546,-2.3932,-0.0862,intercalated ion,0.0028,True,0.0,,-0.0862,-0.0549
30449,Br8Os1Sm8Tc1,1451ac4e71,Sm8TcOsBr8,"['Br', 'Tc', 'Sm', 'Os']",18,571.0448,6.1948,2,C2,5,monoclinic,-98.6627,-1.4573,-0.0613,3D,0.5828,False,0.0,,-0.0613,-0.0609
30459,Br12Ru1V3,145387eda9,V3RuBr12,"['V', 'Br', 'Ru']",16,536.4589,3.7539,m,Pm,6,monoclinic,-75.0862,-1.1823,-0.1161,1D,0.0059,True,0.0,,-0.1161,-0.0116
30473,Ga1O1P5Ti10,145693d82d,Ti10GaP5O,"['O', 'P', 'Ti', 'Ga']",17,235.2138,5.0778,m,Cm,8,monoclinic,-136.0605,-1.2978,-0.0161,3D,0.004,True,0.0,,-0.0161,-0.0134
30516,Br8Hf1Se1,145c8bf99e,HfSeBr8,"['Se', 'Br', 'Hf']",10,377.7085,3.9421,2,P2,3,monoclinic,-39.186,-1.2637,-0.0674,1D,1.9584,True,0.0,,-0.0674,-0.0018
30552,Ho1O2Sb1Tm1,14619e3def,HoTmSbO2,"['O', 'Sb', 'Ho', 'Tm']",5,97.5611,8.2996,4mm,I4mm,107,tetragonal,-38.375,-3.0584,-0.0068,3D,,True,0.0,,-0.0068,-0.0001
30555,F14Tm2W2,14623f172e,TmWF7,"['F', 'Tm', 'W']",18,273.8732,5.8905,2,P2_1,4,monoclinic,-125.5665,-3.5521,-0.26,3D,3.6896,True,0.0,,-0.26,-0.0809
30584,Br35Pt1,1467a3cfd0,PtBr35,"['Br', 'Pt']",36,1793.7135,2.7696,1,P1,1,triclinic,-82.1319,-0.5213,-0.4482,0D,,False,0.0,,-0.4482,-0.428
30660,Ba2F20Hf3Zr1,1473c94971,Ba2Hf3ZrF20,"['F', 'Zr', 'Ba', 'Hf']",26,415.0428,5.1264,1,P1,1,triclinic,-189.1071,-4.1777,-0.0194,intercalated ion,5.9967,True,0.0,,-0.0194,-0.009
30689,O20Tb7V4Y1,14783e3f71,Tb7YV4O20,"['O', 'V', 'Y', 'Tb']",32,441.7554,6.4847,m,Pm,6,monoclinic,-285.7204,-3.485,-0.0079,3D,1.8635,True,0.0,,-0.0079,-0.0079
30766,F8H3V1,1485529eff,VH3F8,"['H', 'F', 'V']",12,175.2491,1.9515,1,P1,1,triclinic,-62.0283,-2.2895,-0.0388,0D,3.3145,False,0.0,,-0.0388,-0.0267
30784,F28Ho4Pt3Tc1,1488cdd0a6,Ho4TcPt3F28,"['F', 'Tc', 'Ho', 'Pt']",36,520.9559,5.9763,1,P1,1,triclinic,-209.6305,-3.0335,-0.0159,3D,1.5302,True,0.0,,-0.0159,-0.0144
30805,Br24Ga1Na7Pa4,148bff452c,Na7Pa4GaBr24,"['Na', 'Ga', 'Br', 'Pa']",36,1342.9585,3.7991,3,P3,143,trigonal,-156.3203,-1.8516,-0.0405,intercalated ion,,True,-0.0,,-0.0405,-0.0346
30881,Ac1Cu4Li1O8,149bda34c0,LiAc(CuO2)4,"['Li', 'O', 'Cu', 'Ac']",14,166.5408,6.1432,-4,I-4,82,tetragonal,-84.3553,-1.5958,-0.0182,intercalated ion,,True,0.0,,-0.0182,-0.016
30888,Ce2F14Ir2,149d43cac8,CeIrF7,"['F', 'Ce', 'Ir']",18,279.2499,5.534,2,P2_1,4,monoclinic,-110.6106,-3.017,-0.0458,3D,0.3522,True,0.0,,-0.0458,-0.0457
30967,As1In2O18V5,14abcd65a7,V5In2AsO18,"['O', 'V', 'As', 'In']",26,450.8013,3.1209,1,P1,1,triclinic,-201.2914,-2.1787,-0.0139,3D,2.7294,True,0.0,,-0.0139,-0.0092
30999,Gd3Li4O8Tb1,14b0eb354d,Li4TbGd3O8,"['Li', 'O', 'Gd', 'Tb']",16,209.4586,6.2347,m,Pm,6,monoclinic,-145.9908,-3.2443,-0.0155,intercalated ion,3.3917,True,0.0,,-0.0155,0.0
31007,Gd2O18V6,14b2756dc6,GdV3O9,"['O', 'V', 'Gd']",26,494.037,3.0524,m,Cc,9,monoclinic,-241.9959,-2.7014,-0.0036,3D,,True,-0.0,,-0.0036,-0.0016
31157,In2O25Pb4Ta8,14cc4160f5,Ta8In2Pb4O25,"['O', 'In', 'Ta', 'Pb']",39,605.1591,7.974,2,C2,5,monoclinic,-350.3553,-2.8574,-0.0004,3D,1.4286,True,0.0,,-0.0004,-0.0003
31190,O13Pb4Ta2Ti2,14d2c8e240,Ta2Ti2Pb4O13,"['O', 'Ti', 'Ta', 'Pb']",21,293.3584,8.4591,mm2,Imm2,44,orthorhombic,-176.157,-2.737,-0.008,3D,1.4456,True,0.0,,-0.008,-0.0076
31338,Ce2F28Ho2W4,14eb8e34fe,CeHo(WF7)2,"['F', 'Ce', 'Ho', 'W']",36,597.2737,5.2196,2,P2_1,4,monoclinic,-253.1257,-3.5206,-0.1111,3D,,True,0.0,,-0.1111,-0.0933
31422,F28Ho1Tb3Zr4,14fa998251,Tb3HoZr4F28,"['F', 'Zr', 'Tb', 'Ho']",36,570.5037,4.4782,1,P1,1,triclinic,-258.8281,-4.2397,-0.0053,3D,6.0513,True,0.0,,-0.0053,-0.0033
31427,Ce3O3Sc3Si8Tb4,14fb4753ee,Tb4Ce3Sc3Si8O3,"['O', 'Si', 'Sc', 'Ce', 'Tb']",21,393.9459,6.1693,mm2,Amm2,38,orthorhombic,-146.456,-1.5655,-0.0605,3D,0.0002,True,0.0,,-0.0605,-0.0535
31432,F34Pd1Te1,14fc9a62c2,TePdF34,"['F', 'Pd', 'Te']",36,704.5829,2.0739,1,P1,1,triclinic,-108.2994,-0.9718,-0.2993,0D,,True,0.0,,-0.2993,-0.2735
31473,Ba2Cl2Nb2O16Pb2Se4,1502c3d41e,BaNbPbSe2ClO8,"['O', 'Cl', 'Se', 'Nb', 'Ba', 'Pb']",28,490.5543,5.1371,2,P2_1,4,monoclinic,-188.836,-2.1615,-0.0083,intercalated ion,,True,0.0,,-0.0083,-0.0065
31478,F30Tb1U5Y2,1503c1bb3e,TbY2U5F30,"['F', 'Y', 'Tb', 'U']",38,603.2515,5.7718,2,C2,5,monoclinic,-287.4346,-4.107,-0.0047,3D,0.0033,True,0.0,,-0.0047,-0.0044
31479,Bi1F34I1,150479a999,BiIF34,"['F', 'I', 'Bi']",36,700.1883,2.3285,1,P1,1,triclinic,-106.1383,-0.9926,-0.2612,0D,,True,-0.0,,-0.2612,-0.2608
31506,O4Pt6Rh2Ti16,15088c2d80,Ti8Pt3RhO2,"['O', 'Ti', 'Rh', 'Pt']",28,403.1896,9.0862,mm2,Ima2,46,orthorhombic,-237.1172,-1.423,-0.0378,3D,0.0025,False,0.0,,-0.0378,-0.0231
31514,Cs1Ho1O8S2,150957df9e,CsHo(SO4)2,"['O', 'S', 'Cs', 'Ho']",12,227.635,3.5741,32,P321,150,trigonal,-84.292,-2.5798,-0.0292,intercalated ion,,True,0.0,,-0.0292,-0.0292
31525,Bi1K1O8Pt4,150c2ec074,KBi(PtO2)4,"['O', 'K', 'Pt', 'Bi']",14,201.6744,9.5216,1,P1,1,triclinic,-85.2189,-1.1679,-0.0225,3D,,True,0.0,,-0.0225,-0.0125
31526,Bi3O14Y5,150c49c294,Y5Bi3O14,"['O', 'Y', 'Bi']",22,320.881,6.7039,1,P1,1,triclinic,-177.3806,-2.9139,-0.0599,3D,1.4796,True,0.0,,-0.0599,-0.0322
31535,Ba4Cs3K1O28Si8Y4,150d3b3ce2,Cs3KBa4Y4(Si2O7)4,"['O', 'Si', 'K', 'Y', 'Cs', 'Ba']",48,734.322,4.5575,1,P1,1,triclinic,-380.3448,-3.3554,-0.006,intercalated ion,,False,0.0,,-0.006,-0.006
31550,Au1Br4O12Rb1,150f512920,RbAu(BrO3)4,"['O', 'Br', 'Rb', 'Au']",18,335.2464,3.933,2,C2,5,monoclinic,-79.5433,-0.5203,-0.0809,intercalated ion,2.134,False,0.0,,-0.0809,-0.0786
31561,Br20Gd1Np3Tl8,1511103059,GdNp3(Tl2Br5)4,"['Br', 'Gd', 'Tl', 'Np']",32,1085.9778,6.2713,m,Pm,6,monoclinic,-154.5708,-1.5625,-0.0202,intercalated ion,,True,0.0,,-0.0202,-0.0171
31563,Br18Cs6Lu3P1,1511f0c1c9,Cs6Lu3PBr18,"['P', 'Br', 'Cs', 'Lu']",28,1105.4084,4.1935,3m,P3m1,156,trigonal,-110.3633,-2.0196,-0.0774,intercalated ion,2.7362,False,-0.0,,-0.0774,-0.0441
31578,Ba4O12Re1Tm1W1,1514b845d0,Ba4TmReWO12,"['O', 'Ba', 'Tm', 'W', 'Re']",19,288.0297,7.381,3m,R3m,160,trigonal,-154.102,-3.0091,-0.0401,intercalated ion,1.9069,True,0.0,,-0.0401,-0.038
31609,F30Hf2Lu1Tm1Zr4,151b994b94,TmLuHf2Zr4F30,"['F', 'Zr', 'Tm', 'Lu', 'Hf']",38,509.2151,5.3341,2,C2,5,monoclinic,-278.679,-4.164,-0.008,3D,,True,0.0,,-0.008,-0.0077
31611,Hf1O12Pr5Rh1,151c8885ac,Pr5HfRhO12,"['O', 'Rh', 'Pr', 'Hf']",19,293.1271,6.6728,2,C2,5,monoclinic,-164.1955,-3.347,-0.062,3D,0.1372,True,0.0,,-0.062,-0.0588
31640,Ga8K33O32Rb7,1520c2b398,K33Rb7(GaO4)8,"['O', 'K', 'Ga', 'Rb']",80,1586.1626,3.097,1,P1,1,triclinic,-362.7185,-1.7082,-0.0164,intercalated ion,,True,0.0,,-0.0164,-0.0145
31643,Br10Ir1La3Sm3,15219084bf,La3Sm3IrBr10,"['Br', 'La', 'Sm', 'Ir']",17,622.2491,4.9611,1,P1,1,triclinic,-88.5164,-2.0203,-0.0132,3D,,True,0.0,,-0.0132,-0.0132
31645,Gd1Ho3O14Ta2Tb2,1521b99f55,Tb2GdHo3Ta2O14,"['O', 'Gd', 'Tb', 'Ho', 'Ta']",22,300.5996,8.5943,1,P1,1,triclinic,-215.1374,-3.8663,-0.0068,3D,,True,0.0,,-0.0068,-0.0066
31692,Bi1F12H7,152a6eaab4,BiH7F12,"['H', 'F', 'Bi']",20,252.7988,2.9166,2,C2,5,monoclinic,-88.5836,-1.9003,-0.075,0D,,True,0.0,,-0.075,-0.0583
31719,In6O18Pr4Tb2,152ee60bef,TbPr2In3O9,"['O', 'In', 'Pr', 'Tb']",30,459.4423,6.7166,6mm,P6_3cm,185,hexagonal,-221.5611,-2.9198,-0.0118,3D,2.0823,True,-0.0,,-0.0118,-0.0115
31742,F3S24Tb1,1533549e7a,Tb(S8F)3,"['F', 'S', 'Tb']",28,837.2847,1.9544,3m,R3m,160,trigonal,-136.297,-0.9519,-0.3137,0D,,True,0.0,,-0.3137,-0.3137
31821,Ga4La1O8Rb1,15430d57d7,RbLa(GaO2)4,"['O', 'Ga', 'Rb', 'La']",14,201.1557,5.2111,mm2,Imm2,44,orthorhombic,-93.503,-2.5636,-0.0448,intercalated ion,,True,0.0,,-0.0448,-0.0189
31824,Ho1O8Pm2U1,1544260076,Pm2HoUO8,"['O', 'Pm', 'Ho', 'U']",12,161.2713,8.453,-42m,I-4m2,119,tetragonal,-109.2908,-3.6944,-0.0509,3D,0.0023,False,-0.0,,-0.0509,-0.0504
31874,O12Sm5U2,154a3652ec,Sm5U2O12,"['O', 'Sm', 'U']",19,290.968,8.103,1,P1,1,triclinic,-179.137,-3.8729,-0.0381,3D,0.1408,True,0.0,,-0.0381,-0.0282
31904,Ca1Cd5Cl4O4,154f16eaa4,CaCd5(ClO)4,"['O', 'Cl', 'Ca', 'Cd']",14,275.7029,4.8662,1,P1,1,triclinic,-57.8227,-1.7155,-0.0095,intercalated ion,1.6296,True,0.0,,-0.0095,-0.0008
31923,Ca2Cd2Ho4O28Sb4Sn4,15529bba44,CaHo2CdSn2(SbO7)2,"['O', 'Ca', 'Cd', 'Sn', 'Sb', 'Ho']",44,574.935,6.8583,2,C2,5,monoclinic,-311.0388,-2.6308,-0.0172,2D,,True,0.0,,-0.0172,-0.0172
31959,Cd1Hg1O7V2,1559c1346a,V2CdHgO7,"['O', 'V', 'Cd', 'Hg']",11,167.7133,5.2167,2,C2,5,monoclinic,-74.9927,-1.9057,-0.0031,3D,2.1761,True,0.0,,-0.0031,-0.0023
32034,Hf16O4Pt3Rh5,156412f8ef,Hf16Pt3Rh5O4,"['O', 'Rh', 'Hf', 'Pt']",28,474.7045,14.0608,3m,R3m,160,trigonal,-275.4245,-1.4744,-0.0378,3D,0.0047,True,0.0,,-0.0378,-0.028
32054,Ho1O13Pb4Sb2Ta1,1567b4ba9f,HoTaSb2Pb4O13,"['O', 'Sb', 'Ho', 'Ta', 'Pb']",21,317.1802,8.5136,m,Cm,8,monoclinic,-152.6046,-2.3206,-0.0172,3D,1.5434,True,0.0,,-0.0172,-0.0171
32103,Na4O6Ta1Y1,157166b8e2,Na4YTaO6,"['O', 'Na', 'Y', 'Ta']",12,155.9493,4.8747,2,C2,5,monoclinic,-86.9991,-2.8066,-0.057,intercalated ion,,True,0.0,,-0.057,-0.0029
32106,Cl12Si1,1571aca643,SiCl12,"['Si', 'Cl']",13,638.6909,1.1791,1,P1,1,triclinic,-40.9234,-1.0243,-0.3543,0D,2.707,False,0.0,,-0.3543,-0.3541
32169,Ca1Cu4O8Tb1,157c8f62fc,CaTb(CuO2)4,"['O', 'Ca', 'Cu', 'Tb']",14,157.7875,6.1163,-4,I-4,82,tetragonal,-89.1947,-1.8982,-0.0477,intercalated ion,0.0012,True,-0.0,,-0.0477,-0.0311
32179,B10Eu1O19Pr2,157ecdb8b6,Pr2EuB10O19,"['B', 'O', 'Pr', 'Eu']",32,337.683,4.1596,2,C2,5,monoclinic,-279.8997,-3.1013,-0.0074,3D,,True,0.0,,-0.0074,-0.0072