Unnamed: 0,Composition,MaterialId,Reduced Formula,Elements,NSites,Volume,Density,Point Group,Space Group,Space Group Number,Crystal System,Corrected Energy,Formation Energy Per Atom,Decomposition Energy Per Atom,Dimensionality Cheon,Bandgap,Is Train,Decomposition Energy Per Atom All,Decomposition Energy Per Atom Relative,Decomposition Energy Per Atom MP,Decomposition Energy Per Atom MP OQMD
87597,F28La2Pr2V4,3a6f5986b3,LaPrV2F14,"['F', 'V', 'La', 'Pr']",36,565.6155,3.8029,2,P2_1,4,monoclinic,-242.0509,-3.6878,-0.0383,3D,,True,0.0,,-0.0383,-0.038
87598,Mg1O14Pb4Si4Zn1,3a6f6a01ad,MgZnSi4(Pb2O7)2,"['O', 'Mg', 'Si', 'Zn', 'Pb']",24,355.4326,5.8625,-4,P-4,81,tetragonal,-170.6667,-2.5826,-0.0027,3D,2.9488,True,0.0,,-0.0027,-0.0027
87601,C1F8,3a6fbff156,CF8,"['C', 'F']",9,127.8563,2.1299,1,P1,1,triclinic,-36.9486,-1.3811,-0.1682,0D,3.06,True,0.0,,-0.1682,-0.1681
87637,Ge1Mg8O16Pd3,3a76e9e5c2,Mg8GePd3O16,"['O', 'Mg', 'Ge', 'Pd']",28,312.3974,4.4774,2,P2,3,monoclinic,-175.4132,-2.26,-0.0325,3D,1.7002,False,0.0,,-0.0325,-0.0101
87646,Ho1Ir4Lu3O16,3a7899f804,HoLu3(IrO4)4,"['O', 'Ho', 'Lu', 'Ir']",24,288.7442,9.861,1,P1,1,triclinic,-190.4123,-2.4061,-0.0538,3D,0.0016,False,0.0,,-0.0538,-0.0294
87738,In3Lu1O18Sm2Te3,3a8645d9dd,Sm2LuIn3(TeO6)3,"['O', 'In', 'Te', 'Sm', 'Lu']",27,368.6962,6.7149,2,C2,5,monoclinic,-186.0708,-2.4209,-0.0062,3D,,True,0.0,,-0.0062,-0.0061
87755,Al2F1K2Nb11O20Rb2,3a88fc41e9,K2Rb2Nb11Al2O20F,"['O', 'F', 'Al', 'K', 'Rb', 'Nb']",38,509.2798,5.4257,mm2,Fmm2,42,orthorhombic,-328.0621,-2.7475,-0.0244,intercalated ion,,True,0.0,,-0.0244,-0.0232
87779,Gd4O12Pu1Tb2,3a8cd0616e,Tb2Gd4PuO12,"['O', 'Gd', 'Tb', 'Pu']",19,270.0999,8.5015,1,P1,1,triclinic,-211.6512,-3.8081,-0.137,3D,,True,0.0,,-0.137,-0.0676
87787,Au4Cl24Sm3Y1,3a8e10f127,Sm3Y(AuCl6)4,"['Cl', 'Y', 'Sm', 'Au']",32,1000.525,3.616,1,P1,1,triclinic,-134.1992,-1.7536,-0.053,3D,1.6174,True,0.0,,-0.053,-0.0329
87802,Al5Cl2Ga3La6,3a8fff8294,La6Al5Ga3Cl2,"['Al', 'Cl', 'Ga', 'La']",16,394.9247,5.2492,1,P1,1,triclinic,-76.4489,-0.9577,-0.0113,3D,0.0072,True,0.0,,-0.0113,-0.0055
87829,Eu2F10Tb1Y1,3a94a065db,TbEu2YF10,"['F', 'Y', 'Eu', 'Tb']",14,200.2113,6.152,2,C2,5,monoclinic,-110.872,-4.2909,-0.004,3D,0.8207,True,0.0,,-0.004,-0.0017
87864,Br12Na1Pr1Pt1Tb5,3a99071631,NaTb5PrPtBr12,"['Na', 'Br', 'Pr', 'Tb', 'Pt']",20,683.0111,5.1358,1,P1,1,triclinic,-95.7074,-2.0359,-0.0433,intercalated ion,,True,0.0,,-0.0433,-0.0097
87885,F27La4O1V4,3a9d974202,La4V4OF27,"['O', 'F', 'V', 'La']",36,537.3766,3.9811,1,P1,1,triclinic,-243.9163,-3.6466,-0.02,3D,,False,-0.0,,-0.02,-0.0198
87933,Ac11Br6La1Si14,3aa4dc8230,Ac11La(Si7Br3)2,"['Si', 'Br', 'La', 'Ac']",32,923.6096,6.3079,mm2,Pmm2,25,orthorhombic,-171.0606,-1.0942,-0.2688,3D,0.0084,True,0.0,,-0.2688,-0.226
87938,Cl1Hf3Sn6Zr7,3aa5bc8f4e,Hf3Zr7Sn6Cl,"['Cl', 'Zr', 'Sn', 'Hf']",17,371.2663,8.5953,32,P312,149,trigonal,-126.9086,-0.6645,-0.0158,3D,0.0025,True,-0.0,,-0.0158,-0.0081
87964,Ca1O16Sr3W4,3aaa04b5fd,Sr3Ca(WO4)4,"['O', 'Ca', 'Sr', 'W']",24,369.7598,5.8125,1,P1,1,triclinic,-204.4733,-2.7666,-0.025,intercalated ion,3.9414,False,0.0,,-0.025,-0.025
87986,Ac1Br1Mg2N12P6,3aacdaf137,AcMg2P6BrN12,"['N', 'Mg', 'P', 'Br', 'Ac']",22,314.2271,3.749,m,Cm,8,monoclinic,-162.8431,-0.9712,-0.1229,3D,,True,0.0,,-0.1229,-0.0876
88031,Br2Cd1O2Pb1Sr1,3ab588f2b5,SrCdPb(BrO)2,"['O', 'Br', 'Sr', 'Cd', 'Pb']",7,168.9536,5.8876,m,Cm,8,monoclinic,-33.0149,-1.9314,-0.0476,intercalated ion,2.7852,True,0.0,,-0.0476,-0.0245
88066,Na4O6Rh1Tl1,3abaa47153,Na4TlRhO6,"['O', 'Na', 'Rh', 'Tl']",12,153.425,5.3601,2,C2,5,monoclinic,-62.7873,-1.5055,-0.1072,intercalated ion,,False,-0.0,,-0.1072,-0.0321
88134,O18Os3Ru3Sr4,3ac7bf932b,Sr4Os3(RuO6)3,"['O', 'Sr', 'Ru', 'Os']",28,397.5404,6.3172,3,R3,146,trigonal,-215.5201,-2.0783,-0.0649,intercalated ion,0.0041,True,0.0,,-0.0649,-0.0515
88150,Ag6F18Pt2Rh1,3aca2c631d,Ag6Pt2RhF18,"['F', 'Rh', 'Ag', 'Pt']",27,451.8348,5.4474,32,P321,150,trigonal,-113.902,-1.5924,-0.077,3D,0.0034,True,0.0,,-0.077,-0.0764
88176,Br7C2Sm4Y2,3ace20327c,Sm4Y2C2Br7,"['C', 'Br', 'Y', 'Sm']",15,416.7018,5.4299,m,Cm,8,monoclinic,-86.358,-1.6426,-0.1024,3D,0.01,True,0.0,,-0.1024,-0.0002
88210,Ba12Na4O34Ru3Sb1V4,3ad2d972e6,Ba12Na4V4SbRu3O34,"['O', 'Na', 'V', 'Ru', 'Sb', 'Ba']",58,924.2313,5.233,3m,P3m1,156,trigonal,-417.5769,-2.6335,-0.0006,intercalated ion,,True,0.0,,-0.0006,-0.0006
88275,F18Na6Rh3,3adb86c2cb,Na2RhF6,"['F', 'Na', 'Rh']",27,403.5861,3.2448,32,P321,150,trigonal,-130.2553,-2.4378,-0.1632,intercalated ion,0.0,True,0.0,,-0.1632,-0.0805
88310,B20Be8O44Pr3U1,3ae208a0de,Pr3UBe8(B5O11)4,"['Be', 'B', 'O', 'Pr', 'U']",76,785.587,3.4941,1,P1,1,triclinic,-639.0187,-3.0549,-0.0231,intercalated ion,,True,0.0,,-0.0231,-0.0231
88311,O26P8Pu3Y1,3ae252b670,YPu3(P4O13)2,"['O', 'P', 'Y', 'Pu']",38,588.0424,4.1925,1,P1,1,triclinic,-336.0616,-3.0221,-0.0238,3D,,True,0.0,,-0.0238,-0.0222
88315,La1Mg2O12Pt2Sr3,3ae2a99bf6,Sr3LaMg2(PtO6)2,"['O', 'Mg', 'Sr', 'La', 'Pt']",20,256.2713,6.6904,1,P1,1,triclinic,-133.8077,-2.4543,-0.0394,intercalated ion,0.0007,True,0.0,,-0.0394,-0.0063
88331,Cl2Gd1H4Y1,3ae4795264,GdY(H2Cl)2,"['H', 'Cl', 'Y', 'Gd']",8,132.8898,4.0123,3m,R3m,160,trigonal,-49.3145,-1.438,-0.0446,2D,0.4164,True,0.0,,-0.0446,-0.0125
88352,Ho2O14W2Y4,3ae865f524,Y2HoWO7,"['O', 'Y', 'Ho', 'W']",22,298.0924,7.1145,2,P2_1,4,monoclinic,-206.668,-3.475,-0.0033,3D,2.4314,False,-0.0,,-0.0033,-0.0026
88379,Ba4La8O28Sc2V6,3aee060d9f,Ba2La4ScV3O14,"['O', 'Sc', 'V', 'Ba', 'La']",48,681.657,6.1001,mm2,Cmm2,35,orthorhombic,-414.5418,-3.3681,-0.0129,intercalated ion,inf,True,0.0,,-0.0129,-0.007
88534,Br3S24Te1,3b08d98e3f,Te(S8Br)3,"['S', 'Br', 'Te']",28,1004.6323,1.8791,3m,R3m,160,trigonal,-121.7055,-0.5134,-0.2937,0D,,True,0.0,,-0.2937,-0.2937
88578,Hf2K2Li14O14Zr1,3b0eaa8c6b,K2Li14Hf2ZrO14,"['Li', 'O', 'K', 'Zr', 'Hf']",33,360.7742,3.9011,mm2,Imm2,44,orthorhombic,-213.6062,-2.6342,-0.0261,intercalated ion,4.3279,False,0.0,,-0.0261,-0.0092
88660,Ho1La7O24Se4,3b1d01ae29,La7Ho(SeO6)4,"['O', 'Se', 'La', 'Ho']",36,511.6367,5.9624,1,P1,1,triclinic,-271.6231,-2.7709,-0.0835,3D,,False,0.0,,-0.0835,-0.0753
88669,Ce2O2P2Re1Rh1,3b1e63e3f0,Ce2ReP2RhO2,"['O', 'P', 'Rh', 'Ce', 'Re']",8,131.5169,8.3747,-42m,P-4m2,115,tetragonal,-69.6133,-2.152,-0.0591,3D,0.0127,True,0.0,,-0.0591,-0.0292
88685,La4O24Pr4Te3W1,3b2074fbd5,La4Pr4Te3WO24,"['O', 'Te', 'La', 'Pr', 'W']",36,548.8249,6.2627,1,P1,1,triclinic,-289.6579,-3.0459,-0.0035,3D,,True,-0.0,,-0.0035,-0.0034
88708,F20O2Os2Sb2,3b24180b7f,SbOsOF10,"['O', 'F', 'Sb', 'Os']",26,450.3152,3.8201,2,P2,3,monoclinic,-138.0528,-2.2775,-0.0112,0D,0.864,True,-0.0,,-0.0112,-0.0102
88725,O22Pa4Te6,3b26d52e69,Pa2Te3O11,"['O', 'Te', 'Pa']",32,615.1346,5.5116,222,P2_12_12,18,orthorhombic,-249.9474,-2.6304,-0.217,3D,2.9559,True,-0.0,,-0.217,-0.217
88818,Ga12Gd1In8O48Sm11,3b372691cb,Sm11GdIn8(GaO4)12,"['O', 'Ga', 'In', 'Sm', 'Gd']",80,1060.8855,6.7844,222,F222,22,orthorhombic,-590.2067,-2.8544,-0.0152,inf,,True,0.0,,-0.0152,-0.0152
88857,Ag2F12Os1Se1,3b3de752b0,Ag2OsSeF12,"['F', 'Se', 'Ag', 'Os']",16,271.5215,4.3599,1,P1,1,triclinic,-73.9594,-1.9146,-0.0502,2D,0.0245,True,0.0,,-0.0502,-0.05
88874,Br5I3Pd4,3b41c6517b,Pd4I3Br5,"['Br', 'Pd', 'I']",12,389.6992,5.1385,1,P1,1,triclinic,-41.0114,-0.6279,-0.0046,2D,,True,0.0,,-0.0046,-0.0001
88875,Au2Bi2Cu2O20Tb6,3b41e257d4,Tb3CuBiAuO10,"['O', 'Cu', 'Tb', 'Au', 'Bi']",32,406.5527,9.0369,m,Cc,9,monoclinic,-226.9667,-2.4273,-0.0814,3D,0.0126,False,0.0,,-0.0814,-0.0249
89013,Br2Ho2O8,3b594b0da4,HoBrO4,"['O', 'Br', 'Ho']",12,179.9611,5.6993,mm2,Aem2,39,orthorhombic,-74.7117,-1.8908,-0.1268,2D,,False,0.0,,-0.1268,-0.1244
89079,Br18C1Cs1Na3Zr6,3b64093f29,CsNa3Zr6CBr18,"['C', 'Na', 'Br', 'Zr', 'Cs']",29,911.3583,4.0076,1,P1,1,triclinic,-147.5158,-1.8164,-0.0744,intercalated ion,1.2162,True,0.0,,-0.0744,-0.0377
89175,Cl8Se14Tc12,3b76b84323,Tc6Se7Cl4,"['Cl', 'Se', 'Tc']",34,954.1017,4.4643,3m,R3c,161,trigonal,-221.9413,-0.9966,-0.63,3D,1.559,True,0.0,,-0.63,-0.1155
89223,Br2C2Ho1Tm3,3b7e6c8403,HoTm3(CBr)2,"['C', 'Br', 'Ho', 'Tm']",8,159.7113,8.8954,3m,P3m1,156,trigonal,-48.6101,-1.1091,-0.1336,3D,,True,0.0,,-0.1336,-0.0108
89240,Ag1Br2I4U1,3b814a8e33,UAg(I2Br)2,"['Br', 'Ag', 'I', 'U']",8,379.281,4.4365,2,C2,5,monoclinic,-32.4063,-1.1141,-0.0565,1D,,False,0.0,,-0.0565,-0.0382
89382,As6O24Sn2W1Zr1,3b9c97980d,ZrSn2As6WO24,"['O', 'As', 'Zr', 'Sn', 'W']",34,550.2397,4.062,3,R3,146,trigonal,-243.2069,-1.9699,-0.0399,3D,2.8681,True,0.0,,-0.0399,-0.0229
89412,Cl2Ge2Ir2Pr4,3ba32fe83d,Pr2GeIrCl,"['Cl', 'Ge', 'Pr', 'Ir']",10,269.9497,7.1616,6mm,P6_3mc,186,hexagonal,-62.7455,-1.321,-0.005,intercalated ion,,True,0.0,,-0.005,-0.0
89437,F24Ir3Rh1,3ba76f7586,Ir3RhF24,"['F', 'Rh', 'Ir']",28,455.722,4.1375,m,Pm,6,monoclinic,-129.4868,-1.7761,-0.0035,0D,0.2714,True,0.0,,-0.0035,-0.0007
89477,Br2F2Li4O6,3bb03f9c21,Li2BrO3F,"['Li', 'O', 'F', 'Br']",14,198.2849,2.693,1,P1,1,triclinic,-66.7502,-1.595,-0.1356,intercalated ion,4.323,True,0.0,,-0.1356,-0.1274
89495,Ac5O14U3,3bb23399d1,Ac5U3O14,"['O', 'Ac', 'U']",22,389.6565,8.8345,1,P1,1,triclinic,-207.451,-3.8045,-0.0662,3D,,True,-0.0,,-0.0662,-0.0648
89565,Nb1O12Pr5Rh1,3bc087bc2b,Pr5NbRhO12,"['O', 'Nb', 'Rh', 'Pr']",19,290.5513,6.2429,2,C2,5,monoclinic,-163.1919,-3.2866,-0.0207,3D,0.0039,True,0.0,,-0.0207,-0.0207
89637,As3La4O4,3bc95403d2,La4As3O4,"['O', 'As', 'La']",11,237.8209,5.8958,mm2,Amm2,38,orthorhombic,-84.1289,-2.7832,-0.0484,3D,0.1148,False,0.0,,-0.0484,-0.0484
89669,Bi8O24U3W1,3bcfbdd573,U3Bi8WO24,"['O', 'W', 'Bi', 'U']",36,558.6224,8.7802,1,P1,1,triclinic,-283.9545,-2.4236,-0.0192,3D,1.7812,False,0.0,,-0.0192,-0.0192
89679,O20Pa8Sm1Sr1,3bd176feab,SrSmPa8O20,"['O', 'Sr', 'Sm', 'Pa']",30,411.5919,9.7079,1,P1,1,triclinic,-303.5162,-4.0677,-0.195,intercalated ion,0.0008,True,0.0,,-0.195,-0.1134
89712,Ag6F18Mo1Tc2,3bd730c65a,Tc2Ag6MoF18,"['F', 'Mo', 'Tc', 'Ag']",27,463.4009,4.5907,3,P3,143,trigonal,-137.1329,-2.0061,-0.098,3D,,True,0.0,,-0.098,-0.098
89715,Cd3In4O24P6,3bd83245cd,Cd3In4(PO4)6,"['O', 'P', 'Cd', 'In']",37,505.8427,4.4853,1,P1,1,triclinic,-253.8788,-2.402,-0.0058,3D,2.7263,True,0.0,,-0.0058,-0.0055
89722,Ag2Cd1O8P2,3bd8ddb33d,CdAg2(PO4)2,"['O', 'P', 'Ag', 'Cd']",13,182.6661,4.7097,1,P1,1,triclinic,-81.1978,-1.8615,-0.0291,3D,0.0162,True,0.0,,-0.0291,-0.028
89729,Ga4O20Sr8Tb3Y1,3bd9e0cc02,Sr8Tb3Y(GaO5)4,"['O', 'Ga', 'Sr', 'Y', 'Tb']",36,571.7935,5.4176,1,P1,1,triclinic,-259.141,-3.1718,-0.0007,intercalated ion,3.172,True,0.0,,-0.0007,-0.0007
89766,O12Ta1Tm5Zr1,3bdeabb9fa,Tm5ZrTaO12,"['O', 'Zr', 'Tm', 'Ta']",19,247.1204,8.7948,1,P1,1,triclinic,-177.5568,-3.9682,-0.0189,3D,4.1392,True,-0.0,,-0.0189,-0.0113
89851,F12Pr3Y1,3beb2680a7,Pr3YF12,"['F', 'Y', 'Pr']",16,220.1186,5.5795,m,Pm,6,monoclinic,-114.4261,-4.4174,-0.0015,3D,7.4567,False,0.0,,-0.0015,-0.0015
89862,Br1Ir3O24Pr8,3bed9a0060,Pr8Ir3BrO24,"['O', 'Br', 'Pr', 'Ir']",36,528.8625,6.8065,1,P1,1,triclinic,-276.4138,-2.5351,-0.0618,3D,,True,0.0,,-0.0618,-0.0579
89902,Ce1Nb1O12Tb5,3bf440b8f0,Tb5CeNbO12,"['O', 'Nb', 'Ce', 'Tb']",19,268.563,7.5411,1,P1,1,triclinic,-171.803,-3.8537,-0.0096,3D,,True,0.0,,-0.0096,-0.0096
89928,Cl12Hf1Na4Pu1,3bf97db361,Na4PuHfCl12,"['Na', 'Cl', 'Hf', 'Pu']",18,518.817,3.0082,32,P312,149,trigonal,-91.5683,-2.214,-0.0744,intercalated ion,,True,0.0,,-0.0744,-0.0323
89930,Br18Nb1Te2U1,3bf9d5adc4,UNb(TeBr9)2,"['Br', 'Nb', 'Te', 'U']",22,969.4302,3.4676,m,Pm,6,monoclinic,-83.4695,-1.1966,-0.0047,0D,0.6701,True,0.0,,-0.0047,-0.0047
90023,F12Pr3U1,3c0ad99671,Pr3UF12,"['F', 'Pr', 'U']",16,228.2775,6.4648,m,Pm,6,monoclinic,-116.6273,-4.2535,-0.0085,3D,0.4679,True,0.0,,-0.0085,-0.0085
90062,Gd4O14Ta2Tb1Y1,3c118d08f0,TbGd4YTa2O14,"['O', 'Y', 'Gd', 'Tb', 'Ta']",22,306.9415,7.9132,1,P1,1,triclinic,-244.6062,-3.8279,-0.0036,3D,2.8717,True,0.0,,-0.0036,-0.0033
90070,Cl2Gd7Ho3Sn6,3c12f0e74b,Gd7Ho3(Sn3Cl)2,"['Cl', 'Sn', 'Gd', 'Ho']",18,486.2545,8.1232,32,P312,149,trigonal,-159.6429,-1.0814,-0.2733,3D,,True,-0.0,,-0.2733,-0.272
90080,Ga5La3O14Ti1,3c158eabdd,La3TiGa5O14,"['O', 'Ti', 'Ga', 'La']",23,306.8627,5.6126,32,P321,150,trigonal,-176.4289,-3.0136,-0.0026,3D,3.1156,True,0.0,,-0.0026,0.0
90116,Bi1Cl18Nb6Rb1,3c1e25e0d5,RbNb6BiCl18,"['Cl', 'Rb', 'Nb', 'Bi']",26,694.7731,3.5613,3,R3,146,trigonal,-143.4162,-1.7179,-0.0131,intercalated ion,,True,-0.0,,-0.0131,-0.0086
90122,Br18C4Rb1Sm1Y9,3c1fb2bbe3,RbSmY9(C2Br9)2,"['C', 'Br', 'Rb', 'Y', 'Sm']",33,999.9286,4.1887,1,P1,1,triclinic,-192.6572,-1.8905,-0.0592,intercalated ion,0.1783,False,-0.0,,-0.0592,-0.0297
90193,Ag1Na3O12V4,3c2c0e53fc,Na3V4AgO12,"['O', 'Na', 'V', 'Ag']",20,301.6055,3.1525,2,C2,5,monoclinic,-146.9821,-2.2235,-0.0019,intercalated ion,2.1714,True,0.0,,-0.0019,-0.0008
90234,Gd1Ho1In2O16Sb4,3c34b4c491,GdHoIn2(SbO4)4,"['O', 'In', 'Sb', 'Gd', 'Ho']",24,305.2017,7.045,1,P1,1,triclinic,-177.5791,-2.4056,-0.0266,3D,,True,0.0,,-0.0266,-0.0249
90237,Al2O10Sc2Sr4,3c34fcf340,Sr2ScAlO5,"['O', 'Al', 'Sc', 'Sr']",18,255.463,4.2533,mm2,Ima2,46,orthorhombic,-139.5205,-3.507,-0.0098,intercalated ion,3.3326,True,0.0,,-0.0098,-0.0098
90263,F7K3Pu1,3c3851977f,K3PuF7,"['F', 'K', 'Pu']",11,218.0916,3.7635,m,Cm,8,monoclinic,-68.9424,-3.4512,-0.0929,intercalated ion,0.3446,False,0.0,,-0.0929,-0.0002
90283,Cd4K4O16P4,3c3b9350c5,KCdPO4,"['O', 'P', 'K', 'Cd']",28,489.4139,3.3452,2,P2_1,4,monoclinic,-176.2337,-2.4029,-0.0403,intercalated ion,,True,0.0,,-0.0403,-0.0396
90288,Gd2Ho3O14Pr1Ta2,3c3c3e16b9,PrGd2Ho3Ta2O14,"['O', 'Pr', 'Gd', 'Ho', 'Ta']",22,304.3674,8.3804,1,P1,1,triclinic,-224.2695,-3.8456,-0.0162,3D,,True,0.0,,-0.0162,-0.0126
90289,Ca4Lu1O18U5,3c3c550ab7,Ca4LuU5O18,"['O', 'Ca', 'Lu', 'U']",28,403.8193,7.4569,1,P1,1,triclinic,-263.5834,-3.7686,-0.0383,intercalated ion,,True,0.0,,-0.0383,-0.0346
90330,F37Pr1,3c425e9245,PrF37,"['F', 'Pr']",38,679.4576,2.0623,1,P1,1,triclinic,-105.8359,-0.7982,-0.3338,0D,,False,0.0,,-0.3338,-0.3337
90341,Br2C2Tb3Th1,3c44524e11,Tb3Th(CBr)2,"['C', 'Br', 'Tb', 'Th']",8,173.3435,8.5511,3m,P3m1,156,trigonal,-51.6724,-1.0785,-0.0105,3D,0.0038,True,0.0,,-0.0105,-0.0048
90359,Br6Li2O18Zr1,3c46769874,Li2Zr(BrO3)6,"['Li', 'O', 'Br', 'Zr']",27,411.8241,3.5181,3,P3,143,trigonal,-136.5282,-0.936,-0.1367,intercalated ion,,False,0.0,,-0.1367,-0.1351
90395,As1Ba2F14Os1,3c4c9f003f,Ba2AsOsF14,"['F', 'As', 'Ba', 'Os']",18,283.9641,4.712,1,P1,1,triclinic,-99.9281,-2.9691,-0.0827,intercalated ion,,True,0.0,,-0.0827,-0.0345
90415,Bi3F28Pr1V4,3c5040136a,PrV4Bi3F28,"['F', 'V', 'Pr', 'Bi']",36,550.8484,4.5325,1,P1,1,triclinic,-218.515,-3.1169,-0.0296,3D,2.0318,False,0.0,,-0.0296,-0.0294
90449,Ba1Cl2O30Os6Sr9,3c5843d4d6,BaSr9Os6(ClO15)2,"['O', 'Cl', 'Sr', 'Ba', 'Os']",48,776.7352,5.5973,3,P3,143,trigonal,-349.5492,-2.3526,-0.0306,intercalated ion,0.577,True,-0.0,,-0.0306,-0.0238
90484,Bi1Hg2O8Tb3,3c5d69ba3b,Tb3Hg2BiO8,"['O', 'Tb', 'Hg', 'Bi']",14,223.1268,9.0417,m,Cm,8,monoclinic,-94.5612,-2.6126,-0.0025,3D,1.6559,True,-0.0,,-0.0025,-0.0025
90515,Cl28In2P2,3c61ba9677,InPCl14,"['P', 'Cl', 'In']",32,1230.3663,1.7333,2,P2_1,4,monoclinic,-101.193,-1.0345,-0.267,0D,,True,0.0,,-0.267,-0.058
90523,Ge6K8O18Sr2,3c62d66219,K4Sr(GeO3)3,"['O', 'K', 'Ge', 'Sr']",34,590.6097,3.4072,2,C2,5,monoclinic,-206.85,-2.2878,-0.0197,intercalated ion,3.1458,False,-0.0,,-0.0197,-0.0038
90535,As1Br12Pr12Zn3,3c648839aa,Pr12Zn3AsBr12,"['Zn', 'As', 'Br', 'Pr']",28,892.6998,5.4332,32,R32,155,trigonal,-128.6092,-1.5413,-0.0106,3D,0.0017,True,0.0,,-0.0106,-0.0084
90689,Ba4Br2Cu2Si2,3c7e2771f7,Ba2CuSiBr,"['Si', 'Cu', 'Br', 'Ba']",10,311.5815,4.7558,6mm,P6_3mc,186,hexagonal,-40.2605,-1.0262,-0.0656,intercalated ion,,True,0.0,,-0.0656,-0.0464
90717,Ho1O1Si6Y9,3c8289a2f2,Y9HoSi6O,"['O', 'Si', 'Y', 'Ho']",17,387.8028,4.9225,32,P312,149,trigonal,-118.1912,-1.0536,-0.0194,3D,0.0023,True,0.0,,-0.0194,-0.0184
90736,Be1Br20Ho3Rb8Tb3,3c861e03d4,Rb8Tb3Ho3BeBr20,"['Be', 'Br', 'Rb', 'Tb', 'Ho']",35,1323.6228,4.0928,mm2,Fmm2,42,orthorhombic,-142.5379,-2.0161,-0.0536,intercalated ion,0.8409,False,0.0,,-0.0536,-0.0241
90832,Ba1F37,3c94d0f523,BaF37,"['F', 'Ba']",38,697.5001,2.0004,1,P1,1,triclinic,-99.4866,-0.7064,-0.3701,intercalated ion,,True,0.0,,-0.3701,-0.3545
90858,Br8Eu1Mg3O24,3c9909683a,EuMg3(BrO3)8,"['O', 'Mg', 'Br', 'Eu']",36,615.4511,3.3675,1,P1,1,triclinic,-182.9083,-0.9991,-0.046,3D,,True,0.0,,-0.046,-0.0376
90861,F28Pt4Tm3Y1,3c9a406824,YTm3Pt4F28,"['F', 'Y', 'Tm', 'Pt']",36,514.2683,6.1608,1,P1,1,triclinic,-202.8176,-2.92,-0.1654,3D,2.2506,True,0.0,,-0.1654,-0.0398
90932,O14Sm2Ta2Tb2Tm2,3ca6a0f0ff,TbSmTmTaO7,"['O', 'Sm', 'Tb', 'Tm', 'Ta']",22,299.0654,8.5637,mm2,Ama2,40,orthorhombic,-205.585,-3.8609,-0.0033,3D,3.5132,False,0.0,,-0.0033,-0.0029
90946,Eu3O12Rb1Ti4,3ca8c9252c,RbEu3Ti4O12,"['O', 'Ti', 'Rb', 'Eu']",20,246.9233,6.2193,2,C2,5,monoclinic,-191.7808,-3.4483,-0.0461,3D,,False,0.0,,-0.0461,-0.0235
90948,Ba7O18Sb3Sr1Ta1,3caa0ee2d6,Ba7SrTa(SbO6)3,"['O', 'Sr', 'Sb', 'Ba', 'Ta']",30,534.0126,5.8557,3,P3,143,trigonal,-214.6417,-2.8737,-0.0085,intercalated ion,3.3029,True,0.0,,-0.0085,-0.0081
90972,Au3La4O4,3cad478db2,La4Au3O4,"['O', 'La', 'Au']",11,237.3427,8.4692,mm2,Amm2,38,orthorhombic,-78.8985,-2.6855,-0.032,3D,0.0045,True,0.0,,-0.032,-0.0295
90999,Br1Cl1Ir2S2,3cb14d6f07,Ir2S2BrCl,"['S', 'Cl', 'Br', 'Ir']",6,153.43,6.1032,mm2,Pmm2,25,orthorhombic,-33.9463,-0.7519,-0.01,2D,0.2504,True,0.0,,-0.01,-0.0098
91019,Br8Ga1P1,3cb49d35b3,GaPBr8,"['P', 'Ga', 'Br']",10,463.1043,2.6531,1,P1,1,triclinic,-31.4461,-0.9909,-0.026,0D,,True,0.0,,-0.026,-0.026
91035,Cl2Rb12Sc2Te8,3cb65f9067,Rb6ScTe4Cl,"['Cl', 'Sc', 'Rb', 'Te']",24,1037.4808,3.5328,6mm,P6_3mc,186,hexagonal,-88.3326,-1.4607,-0.0598,intercalated ion,2.367,True,0.0,,-0.0598,-0.0363
91069,Br2Pb6Sm7Y3,3cbb8008c8,Sm7Y3(Pb3Br)2,"['Br', 'Y', 'Sm', 'Pb']",18,510.3383,8.8576,32,P312,149,trigonal,-92.8235,-0.8247,-0.0031,3D,,True,0.0,,-0.0031,-0.0031
91119,Bi3F28Pr1Ru4,3cc3d2fc79,PrBi3Ru4F28,"['F', 'Ru', 'Pr', 'Bi']",36,565.7438,5.0017,1,P1,1,triclinic,-199.0066,-2.5538,-0.0349,3D,0.0008,True,0.0,,-0.0349,-0.0307
91123,As1Ga5O1Zr10,3cc45e0ba0,Zr10Ga5AsO,"['O', 'Ga', 'As', 'Zr']",17,323.531,6.9381,m,Cm,8,monoclinic,-126.2354,-0.9418,-0.0385,3D,0.0075,True,0.0,,-0.0385,-0.0273
91168,Cl6La9Pr3Si14,3ccd2b5f76,La9Pr3(Si7Cl3)2,"['Si', 'Cl', 'La', 'Pr']",32,768.8775,4.9215,m,Pm,6,monoclinic,-186.5806,-1.274,-0.0188,3D,,False,0.0,,-0.0188,-0.0183
91205,F28Ho2Pt4Y2,3cd3b4e843,YHoPt2F14,"['F', 'Y', 'Ho', 'Pt']",36,524.6575,5.7602,2,P2_1,4,monoclinic,-204.7783,-2.9132,-0.0005,3D,2.3225,True,0.0,,-0.0005,-0.0005
91276,Li4O16Si4Tb2Y2,3cdfcb2c3c,Li2TbY(SiO4)2,"['Li', 'O', 'Si', 'Y', 'Tb']",28,342.7023,4.321,m,Pc,7,monoclinic,-226.4585,-3.4197,-0.0155,intercalated ion,5.1059,True,0.0,,-0.0155,-0.0041
91359,Ca12F8Nb1O48Sb15,3cefb7e4ee,Ca12NbSb15(O6F)8,"['O', 'F', 'Ca', 'Nb', 'Sb']",84,1148.0079,4.8025,32,R32,155,trigonal,-574.399,-2.6845,-0.0018,intercalated ion,1.7867,True,0.0,,-0.0018,-0.0018
91403,Br1P5Sr8,3cf8090ea9,Sr8P5Br,"['P', 'Br', 'Sr']",14,412.4301,3.7675,-4,I-4,82,tetragonal,-59.6315,-1.2437,-0.0455,intercalated ion,1.525,True,0.0,,-0.0455,-0.0101
91435,As1Ba1F12Rh1,3cfdfc390e,BaAsRhF12,"['F', 'As', 'Rh', 'Ba']",15,272.0014,3.3158,1,P1,1,triclinic,-74.9686,-2.5392,-0.0235,intercalated ion,,True,0.0,,-0.0235,-0.0212
91443,F10Hf1,3cff2915c7,HfF10,"['F', 'Hf']",11,191.588,3.1937,1,P1,1,triclinic,-51.7888,-2.0652,-0.1892,intercalated molecule,2.7299,True,0.0,,-0.1892,-0.1892
91571,F28Lu1Tm3Zr4,3d13bfa3e6,Tm3LuZr4F28,"['F', 'Zr', 'Tm', 'Lu']",36,549.7405,4.7684,1,P1,1,triclinic,-258.4534,-4.2442,-0.0057,3D,6.0104,False,0.0,,-0.0057,-0.0048
91574,O12Os1Tb5Tc1,3d1449f612,Tb5TcOsO12,"['O', 'Tc', 'Tb', 'Os']",19,256.9278,8.2394,2,C2,5,monoclinic,-165.8023,-3.2456,-0.0527,3D,0.0727,True,0.0,,-0.0527,-0.0501
91581,Br6Mg1Pa1,3d152a99db,MgPaBr6,"['Mg', 'Br', 'Pa']",8,300.3028,4.0629,3,R3,146,trigonal,-35.978,-1.8802,-0.0157,2D,0.647,True,0.0,,-0.0157,-0.0035
91619,Br2P1Pu1Tb1,3d1b1566e3,TbPuPBr2,"['P', 'Br', 'Tb', 'Pu']",5,141.1282,6.9857,3m,P3m1,156,trigonal,-36.7501,-1.8321,-0.0968,2D,0.004,True,-0.0,,-0.0968,-0.0078