Unnamed: 0,Composition,MaterialId,Reduced Formula,Elements,NSites,Volume,Density,Point Group,Space Group,Space Group Number,Crystal System,Corrected Energy,Formation Energy Per Atom,Decomposition Energy Per Atom,Dimensionality Cheon,Bandgap,Is Train,Decomposition Energy Per Atom All,Decomposition Energy Per Atom Relative,Decomposition Energy Per Atom MP,Decomposition Energy Per Atom MP OQMD
116431,B3Cl12S1Sm12,4d89d5cead,Sm12B3SCl12,"['B', 'S', 'Cl', 'Sm']",28,714.6017,5.3312,32,R32,155,trigonal,-155.0538,-1.8598,-0.0939,3D,0.0041,True,0.0,,-0.0939,-0.0508
116460,Be4Gd2O14Si2Tb2,4d8e7eedbd,TbGdBe2SiO7,"['Be', 'O', 'Si', 'Gd', 'Tb']",24,263.0175,5.9887,2,P2_1,4,monoclinic,-218.0738,-3.5655,-0.0247,intercalated ion,3.5282,True,0.0,,-0.0247,-0.0048
116470,B2Cl12P2Pr12,4d8f690d1e,Pr6BPCl6,"['B', 'P', 'Cl', 'Pr']",28,762.5256,4.7907,222,F222,22,orthorhombic,-157.7352,-1.9285,-0.0813,3D,,True,0.0,,-0.0813,-0.0383
116481,Cl1Pr17Si15Y3,4d912f8dd7,Pr17Y3Si15Cl,"['Si', 'Cl', 'Y', 'Pr']",36,947.5268,5.4658,1,P1,1,triclinic,-210.6989,-0.7443,-0.0244,3D,0.0003,True,0.0,,-0.0244,-0.0212
116494,Br8Os1Sm7Tc1Y1,4d9336dd03,Sm7YTcOsBr8,"['Br', 'Y', 'Tc', 'Sm', 'Os']",18,564.4406,6.0865,1,P1,1,triclinic,-100.5039,-1.4624,-0.0457,3D,,True,0.0,,-0.0457,-0.0454
116643,F30Nb5Tc1,4dab6f863e,Nb5TcF30,"['F', 'Nb', 'Tc']",36,670.0107,2.8067,m,Pm,6,monoclinic,-233.1047,-3.1915,-0.0084,0D,0.3206,True,0.0,,-0.0084,-0.0078
116683,La2Lu2O14Sm2Ta2,4db28a08ab,LaSmLuTaO7,"['O', 'La', 'Sm', 'Lu', 'Ta']",22,308.5898,8.1488,mm2,Ama2,40,orthorhombic,-206.2768,-3.8608,-0.0058,3D,3.625,True,0.0,,-0.0058,-0.0058
116770,Bi1Cd2In1O6,4dc2d48a1a,Cd2InBiO6,"['O', 'Cd', 'In', 'Bi']",10,142.5445,7.5093,3,R3,146,trigonal,-53.6558,-1.5481,-0.0425,3D,0.0746,True,0.0,,-0.0425,-0.0371
116773,La1O22Si4Sr3Ti5,4dc3ca2459,Sr3LaTi5(Si2O11)2,"['O', 'Si', 'Ti', 'Sr', 'La']",35,439.1164,4.1802,m,Cm,8,monoclinic,-302.5251,-3.4996,-0.0082,intercalated ion,0.0102,True,0.0,,-0.0082,-0.0082
116774,Ac1Bi7O14,4dc3d17201,Ac(BiO2)7,"['O', 'Bi', 'Ac']",22,359.0815,8.8504,1,P1,1,triclinic,-140.8396,-1.828,-0.0267,3D,0.9779,False,0.0,,-0.0267,-0.0267
116778,O8Tb2Ti1W1,4dc43ba36c,Tb2TiWO8,"['O', 'Ti', 'Tb', 'W']",12,149.043,7.5489,2,P2,3,monoclinic,-110.0443,-3.3615,-0.0063,3D,3.233,False,0.0,,-0.0063,-0.0063
116796,Ba1Hf3O24P6Zr1,4dc6820e51,BaHf3Zr(PO4)6,"['O', 'P', 'Zr', 'Ba', 'Hf']",35,534.5563,4.1435,3,R3,146,trigonal,-307.8746,-3.323,-0.0172,intercalated ion,4.8088,False,-0.0,,-0.0172,-0.0148
116812,Bi2O14Sb2Tb2Tl2,4dc8572aae,TbTlBiSbO7,"['O', 'Sb', 'Tb', 'Tl', 'Bi']",22,315.0693,8.4963,mm2,Ama2,40,orthorhombic,-147.8405,-2.2063,-0.0113,3D,2.064,True,0.0,,-0.0113,-0.0113
116813,In1Lu1O18V6,4dc8c93b1f,LuV6InO18,"['O', 'V', 'In', 'Lu']",26,471.5334,3.111,1,P1,1,triclinic,-215.9439,-2.504,-0.0179,3D,,True,0.0,,-0.0179,-0.0179
116818,Ho1O24Pr2Tm5W4,4dcaaf3b14,Pr2HoTm5(WO6)4,"['O', 'Pr', 'Ho', 'Tm', 'W']",36,466.2214,8.5864,2,P2,3,monoclinic,-326.4737,-3.3157,-0.0147,3D,3.5985,False,0.0,,-0.0147,-0.0145
116892,Ce1F28Ru4Tm3,4dda96ba1d,CeTm3Ru4F28,"['F', 'Ru', 'Ce', 'Tm']",36,519.1398,5.0639,1,P1,1,triclinic,-223.279,-3.1472,-0.1722,3D,,True,0.0,,-0.1722,-0.0434
116917,Br6Pa1Ti1,4ddf830aea,PaTiBr6,"['Ti', 'Br', 'Pa']",8,281.6096,4.4715,3,R3,146,trigonal,-41.2883,-1.7571,-0.0413,2D,0.2492,True,-0.0,,-0.0413,-0.0134
116951,Au1Gd2Ho4O12,4de650cd5c,Gd2Ho4AuO12,"['O', 'Gd', 'Ho', 'Au']",19,263.871,8.5785,1,P1,1,triclinic,-170.8629,-3.249,-0.0142,3D,0.0024,True,0.0,,-0.0142,-0.0113
116957,Hf3O12Tb3Tm1,4de6e2cb87,Tb3TmHf3O12,"['O', 'Tb', 'Tm', 'Hf']",19,253.7364,8.9865,1,P1,1,triclinic,-184.551,-4.0487,-0.0329,3D,,True,0.0,,-0.0329,-0.0306
116961,Br12Ir2La5Y3,4de7311fd4,La5Y3(IrBr6)2,"['Br', 'Y', 'La', 'Ir']",22,844.0159,4.534,m,Pm,6,monoclinic,-124.9968,-1.9817,-0.0116,3D,,True,0.0,,-0.0116,-0.0116
116964,As4Cd4O16Rb4,4de7b1bb5f,RbCdAsO4,"['O', 'As', 'Rb', 'Cd']",28,540.0746,4.1421,mm2,Pna2_1,33,orthorhombic,-157.3579,-1.855,-0.2328,intercalated ion,2.3191,True,-0.0,,-0.2328,-0.0514
117022,Ba2Br1F14V1,4df0018651,Ba2VBrF14,"['F', 'V', 'Br', 'Ba']",18,284.3661,3.9211,1,P1,1,triclinic,-91.7672,-2.8026,-0.0362,intercalated ion,1.9082,True,0.0,,-0.0362,-0.036
117026,Bi1Eu1O12Pr5,4df0860b62,Pr5EuBiO12,"['O', 'Pr', 'Eu', 'Bi']",19,309.4223,6.7483,1,P1,1,triclinic,-158.2334,-3.1985,-0.0551,3D,,True,0.0,,-0.0551,-0.04
117058,Ac5Ir1La1O12,4df61e34d1,Ac5LaIrO12,"['O', 'La', 'Ir', 'Ac']",19,326.1201,8.4428,1,P1,1,triclinic,-155.8721,-3.2693,-0.0779,3D,,True,0.0,,-0.0779,-0.0675
117071,F28Ge1Sm4V3,4df8bd8666,Sm4V3GeF28,"['F', 'V', 'Ge', 'Sm']",36,531.2361,4.2475,1,P1,1,triclinic,-235.0636,-3.6331,-0.0303,3D,1.9913,True,0.0,,-0.0303,-0.0301
117111,Br12Ho4Si2Sm1Tb3,4dfff8143b,Tb3SmHo4(SiBr6)2,"['Si', 'Br', 'Sm', 'Tb', 'Ho']",22,761.7913,5.0176,m,Pm,6,monoclinic,-109.0504,-1.8911,-0.0475,3D,0.0127,False,0.0,,-0.0475,-0.0264
117130,Br8Hg3Mg1O24,4e0289dbfa,MgHg3(BrO3)8,"['O', 'Mg', 'Br', 'Hg']",36,629.48,4.3508,1,P1,1,triclinic,-153.2371,-0.5244,-0.0815,3D,2.8137,True,0.0,,-0.0815,-0.0744
117178,O24P6Sm1Ta3,4e0b64ec67,SmTa3(PO4)6,"['O', 'P', 'Sm', 'Ta']",34,520.4908,4.0295,3,R3,146,trigonal,-296.0842,-3.0753,-0.0107,3D,3.6754,True,0.0,,-0.0107,-0.0107
117192,Br1Na3O4,4e0d5114ad,Na3BrO4,"['O', 'Na', 'Br']",8,109.5538,3.2265,m,Cm,8,monoclinic,-35.5005,-1.263,-0.037,intercalated ion,2.0316,True,0.0,,-0.037,-0.0364
117267,Cd5Mo6O24Tl2,4e186206a7,Tl2Cd5(MoO4)6,"['O', 'Mo', 'Cd', 'Tl']",37,673.7413,4.7579,1,P1,1,triclinic,-260.1457,-1.8104,-0.0191,3D,,True,0.0,,-0.0191,-0.0016
117283,La1O12Pr4Re1Ru1,4e1b040b64,LaPr4ReRuO12,"['O', 'Ru', 'La', 'Pr', 'Re']",19,286.4289,6.8514,2,C2,5,monoclinic,-165.4217,-3.172,-0.0057,3D,0.6275,True,0.0,,-0.0057,-0.0057
117321,Br16Pd4Se8,4e236564d2,Pd(SeBr2)2,"['Se', 'Br', 'Pd']",28,1021.2622,3.798,1,P1,1,triclinic,-93.9707,-0.6819,-0.0798,0D,,True,0.0,,-0.0798,-0.0021
117325,O12Os1Tc1Tm5,4e241534d8,Tm5TcOsO12,"['O', 'Tc', 'Tm', 'Os']",19,243.4471,9.037,2,C2,5,monoclinic,-165.9565,-3.2955,-0.0452,3D,0.1429,True,0.0,,-0.0452,-0.0437
117341,Cl10Mo1Re1,4e25ce8ed7,ReMoCl10,"['Cl', 'Mo', 'Re']",12,363.2747,2.9103,1,P1,1,triclinic,-56.1024,-1.1939,-0.0037,intercalated ion,0.0028,True,0.0,,-0.0037,-0.0002
117383,Bi6O18Sb2Zn1,4e2b38768c,ZnBi6(SbO9)2,"['O', 'Zn', 'Sb', 'Bi']",27,388.9991,7.9006,32,P321,150,trigonal,-165.4675,-1.6128,-0.0107,3D,0.2727,False,0.0,,-0.0107,-0.0107
117403,Ir3O13Os1Pb4,4e2f7815cf,Ir3OsPb4O13,"['O', 'Os', 'Ir', 'Pb']",21,282.4048,10.6056,3m,R3m,160,trigonal,-147.4166,-1.4524,-0.045,3D,0.0095,True,0.0,,-0.045,-0.0077
117442,Ca5O12Tb1U2,4e351c6099,Ca5TbU2O12,"['O', 'Ca', 'Tb', 'U']",20,313.2148,5.4467,1,P1,1,triclinic,-170.2728,-3.6826,-0.0226,intercalated ion,0.5416,True,0.0,,-0.0226,-0.0226
117499,F20Ho5K2Y1,4e3f8f7f82,K2YHo5F20,"['F', 'K', 'Y', 'Ho']",28,393.4857,5.7888,4mm,I4mm,107,tetragonal,-190.1239,-4.2962,-0.0003,intercalated ion,7.0034,True,0.0,,-0.0003,0.0
117546,F22Hf3Lu1Pu2,4e46421c04,LuPu2Hf3F22,"['F', 'Lu', 'Hf', 'Pu']",28,434.0478,6.1839,m,Cm,8,monoclinic,-220.7974,-4.1363,-0.0254,3D,,True,0.0,,-0.0254,-0.0251
117577,As3Br12La12P1,4e4abf190b,La12As3PBr12,"['P', 'As', 'Br', 'La']",28,914.4858,5.2322,32,R32,155,trigonal,-152.8965,-1.9511,-0.0003,3D,0.0009,True,0.0,,-0.0003,-0.0003
117587,Br18Cs6In3Sc1,4e4ca2ad4e,Cs6Sc(InBr6)3,"['Sc', 'Br', 'In', 'Cs']",28,1115.3495,3.9083,3m,P3m1,156,trigonal,-99.3095,-1.7816,-0.0454,intercalated ion,2.4556,True,0.0,,-0.0454,-0.0452
117592,Ho5O12Ru1Ti1,4e4d9874dc,Ho5TiRuO12,"['O', 'Ti', 'Ru', 'Ho']",19,249.9584,7.7433,2,C2,5,monoclinic,-166.0547,-3.5051,-0.0222,3D,0.0026,True,0.0,,-0.0222,-0.0219
117603,Ba1La8O26Si6Sr1,4e4f2706d2,BaSrLa8(Si3O13)2,"['O', 'Si', 'Sr', 'Ba', 'La']",42,611.2636,5.2177,3,P3,143,trigonal,-360.2168,-3.7124,-0.018,intercalated ion,4.3619,True,0.0,,-0.018,-0.0044
117615,Br8Hg3Na1O24,4e5155a8ba,NaHg3(BrO3)8,"['O', 'Na', 'Br', 'Hg']",36,634.3182,4.3141,1,P1,1,triclinic,-149.5239,-0.4289,-0.0679,intercalated ion,,False,-0.0,,-0.0679,-0.0602
117635,Ca2O8Ti2V1,4e5449b61e,Ca2Ti2VO8,"['O', 'Ca', 'Ti', 'V']",13,163.9923,3.5929,2,C2,5,monoclinic,-111.7007,-3.3255,-0.0,intercalated ion,1.8215,False,0.0,,-0.0,-0.0
117639,Ir7Li4O24Rh1,4e559c2947,Li4Ir7RhO24,"['Li', 'O', 'Rh', 'Ir']",36,364.7167,8.4693,2,P2,3,monoclinic,-244.5417,-1.3586,-0.1219,intercalated ion,,True,0.0,,-0.1219,-0.037
117662,F3S24Sc1,4e59560014,Sc(S8F)3,"['F', 'S', 'Sc']",28,973.39,1.4867,3m,R3m,160,trigonal,-137.6911,-0.941,-0.327,0D,,True,0.0,,-0.327,-0.327
117667,Br2I4In1Pa1,4e5a5d2e84,PaIn(I2Br)2,"['Br', 'In', 'I', 'Pa']",8,417.0149,4.0348,1,P1,1,triclinic,-32.3187,-1.3353,-0.114,2D,1.2997,True,0.0,,-0.114,-0.1108
117677,Au1Ce1Gd5O12,4e5c725fcb,CeGd5AuO12,"['O', 'Ce', 'Gd', 'Au']",19,275.0545,7.9408,1,P1,1,triclinic,-201.6269,-3.2981,-0.0258,3D,1.1129,True,0.0,,-0.0258,-0.0169
117737,Bi2La5O14Tb1,4e66827c32,La5Tb(BiO7)2,"['O', 'La', 'Tb', 'Bi']",22,351.8016,7.0585,1,P1,1,triclinic,-176.2054,-3.1745,-0.1027,3D,1.3485,True,0.0,,-0.1027,-0.067
117789,Bi4F28Hf3Pt1,4e6dd9f69a,Hf3Bi4PtF28,"['F', 'Hf', 'Pt', 'Bi']",36,585.6346,5.95,1,P1,1,triclinic,-220.8969,-3.2187,-0.046,3D,2.5289,True,-0.0,,-0.046,-0.046
117802,F28La4V3Zr1,4e6fc854f6,La4ZrV3F28,"['F', 'V', 'Zr', 'La']",36,592.5656,3.7316,1,P1,1,triclinic,-247.3568,-3.8414,-0.0294,3D,,True,0.0,,-0.0294,-0.0287
117809,Br12La12Os2Pt2,4e70ab1fe8,La6OsPtBr6,"['Br', 'La', 'Os', 'Pt']",28,938.692,6.0081,222,F222,22,orthorhombic,-160.9532,-1.6958,-0.0902,3D,inf,True,0.0,,-0.0902,-0.089
117882,Ho1O14Pr2Ru2Tm3,4e7df3b523,Pr2HoTm3(RuO7)2,"['O', 'Ru', 'Pr', 'Ho', 'Tm']",22,289.6495,7.9096,m,Pm,6,monoclinic,-185.4992,-3.1867,-0.0218,3D,0.1857,False,0.0,,-0.0218,-0.0218
117890,Ba2Cu1O18Pt6,4e80e50bcc,Ba2Cu(PtO3)6,"['O', 'Cu', 'Ba', 'Pt']",27,328.0036,9.0959,1,P1,1,triclinic,-168.2238,-1.2888,-0.1055,intercalated ion,,True,-0.0,,-0.1055,-0.0863
117931,Al1F3S24,4e8689b954,Al(S8F)3,"['F', 'Al', 'S']",28,972.6995,1.4571,3m,R3m,160,trigonal,-133.7358,-0.8922,-0.3393,0D,,True,0.0,,-0.3393,-0.3393
117941,Hf3O2Sn6Tb6Zr1,4e87eb55e5,Tb6Hf3Zr(Sn3O)2,"['O', 'Zr', 'Sn', 'Tb', 'Hf']",18,402.2339,9.5962,32,P312,149,trigonal,-122.9307,-1.264,-0.0339,3D,0.0079,False,-0.0,,-0.0339,-0.0337
117974,Cl18Cs1Ta6Y1,4e8e2808c2,CsYTa6Cl18,"['Cl', 'Y', 'Cs', 'Ta']",26,694.6484,4.651,3,R3,146,trigonal,-161.6343,-1.9174,-0.0083,intercalated ion,1.4584,True,-0.0,,-0.0083,-0.0069
117984,Li2O12Pr2Sr2W2,4e904e55e8,SrLiPrWO6,"['Li', 'O', 'Sr', 'Pr', 'W']",20,260.7203,6.564,m,Pc,7,monoclinic,-161.3178,-2.9634,-0.0217,intercalated ion,3.6202,True,-0.0,,-0.0217,-0.0189
118020,Ce3O20Pa7,4e95f04910,Ce3Pa7O20,"['O', 'Ce', 'Pa']",30,410.368,9.5399,1,P1,1,triclinic,-306.2801,-4.0973,-0.0149,3D,0.0022,True,-0.0,,-0.0149,-0.0149
118056,Bi2La8O8Sb1,4e9ac84a18,La8Bi2SbO8,"['O', 'Sb', 'La', 'Bi']",19,437.9106,6.7457,m,Cm,8,monoclinic,-149.8504,-3.0984,-0.0218,3D,,True,0.0,,-0.0218,-0.0146
118065,Mg1O24P6U3,4e9bf58f64,MgU3(PO4)6,"['O', 'Mg', 'P', 'U']",34,557.3914,3.8974,1,P1,1,triclinic,-291.4645,-3.084,-0.0552,3D,,True,0.0,,-0.0552,-0.0552
118072,B2Cl12Lu7Tb1,4e9cc049e4,TbLu7(BCl6)2,"['B', 'Cl', 'Tb', 'Lu']",22,602.2433,5.0479,m,Pm,6,monoclinic,-118.6044,-2.1265,-0.0873,3D,0.0017,True,0.0,,-0.0873,-0.0306
118099,Br35Mo1,4ea0400f50,MoBr35,"['Br', 'Mo']",36,1793.7135,2.6778,1,P1,1,triclinic,-89.7241,-0.5996,-0.4908,0D,,False,0.0,,-0.4908,-0.4313
118101,Ga6O4Pd2Ti12,4ea070494b,Ti6Ga3PdO2,"['O', 'Ti', 'Ga', 'Pd']",24,326.4767,6.4574,2,P2_1,4,monoclinic,-175.8901,-1.3677,-0.0548,3D,0.0005,False,0.0,,-0.0548,-0.0541
118112,Cl2Lu3Sn6Y7,4ea2765dfc,Y7Lu3(Sn3Cl)2,"['Cl', 'Y', 'Sn', 'Lu']",18,461.4445,6.9467,32,P312,149,trigonal,-105.783,-1.0667,-0.0285,3D,,True,0.0,,-0.0285,-0.0223
118184,Au4Br24Tb3Y1,4eaee4345b,Tb3Y(AuBr6)4,"['Br', 'Y', 'Tb', 'Au']",32,1158.2329,4.6899,1,P1,1,triclinic,-118.8715,-1.4413,-0.0272,3D,,True,0.0,,-0.0272,-0.004
118232,Al1Cu5F18,4eb81334c3,AlCu5F18,"['F', 'Al', 'Cu']",24,277.3897,4.1107,3,P3,143,trigonal,-107.436,-2.0328,-0.2547,3D,0.6007,True,0.0,,-0.2547,-0.0026
118255,Al8As12O48Rb12,4ebc024904,Rb3Al2(AsO4)3,"['O', 'Al', 'As', 'Rb']",80,1413.7061,3.4163,mm2,Pna2_1,33,orthorhombic,-522.0216,-2.336,-0.1226,intercalated ion,,True,0.0,,-0.1226,-0.0194
118276,Cl2In5Sn1Y10,4ebfcf0045,Y10In5SnCl2,"['Cl', 'Y', 'In', 'Sn']",18,483.9228,5.6713,mm2,Amm2,38,orthorhombic,-101.5746,-0.858,-0.0378,3D,,True,0.0,,-0.0378,-0.036
118306,B3C1Cl12Y12,4ec4d61b5e,Y12B3CCl12,"['B', 'C', 'Cl', 'Y']",28,641.9756,3.975,32,R32,155,trigonal,-179.2567,-1.7933,-0.0336,3D,0.0047,True,0.0,,-0.0336,-0.0056
118314,Ce1Nb1O12Tb5,4ec5fce1d9,Tb5CeNbO12,"['O', 'Nb', 'Ce', 'Tb']",19,268.0928,7.5543,1,P1,1,triclinic,-171.8028,-3.8537,-0.0096,3D,,True,0.0,,-0.0096,-0.0096
118365,Ca8O16Ti1V3,4ecd993772,Ca8TiV3O16,"['O', 'Ca', 'Ti', 'V']",28,423.4332,3.0483,m,Pm,6,monoclinic,-219.263,-3.1751,-0.0213,intercalated ion,1.524,True,0.0,,-0.0213,-0.02
118456,Cd1Hf1O7Si2,4edb82ada6,HfCdSi2O7,"['O', 'Si', 'Cd', 'Hf']",11,138.1167,5.5192,2,C2,5,monoclinic,-91.039,-3.152,-0.0016,3D,3.6461,True,-0.0,,-0.0016,-0.0016
118462,B2Br2Cu12S10,4edcaae645,Cu6BS5Br,"['B', 'S', 'Cu', 'Br']",26,430.4472,4.8786,m,Cc,9,monoclinic,-119.9157,-0.4895,-0.0118,3D,0.0011,False,0.0,,-0.0118,-0.003
118467,Ag1Mo2O8Pr1,4edd4b2628,PrAg(MoO4)2,"['O', 'Mo', 'Ag', 'Pr']",12,171.4782,5.5066,-4,I-4,82,tetragonal,-95.668,-2.2316,-0.0022,3D,2.5378,True,0.0,,-0.0022,-0.0022
118470,F30Hf5Pt1Tb2,4edddcfb9e,Tb2Hf5PtF30,"['F', 'Tb', 'Hf', 'Pt']",38,507.2584,6.4664,2,C2,5,monoclinic,-270.4529,-3.8943,-0.0058,3D,,True,0.0,,-0.0058,-0.0053
118518,Gd1Np4O24Pr7,4ee78fd2d7,Pr7GdNp4O24,"['O', 'Pr', 'Gd', 'Np']",36,576.2302,7.134,1,P1,1,triclinic,-350.2957,-3.672,-0.2446,3D,,True,0.0,,-0.2446,-0.1774
118563,Ca1O12Pu1Y5,4eeef64fad,CaY5PuO12,"['O', 'Ca', 'Y', 'Pu']",19,276.7373,5.524,1,P1,1,triclinic,-178.3551,-3.7039,-0.1661,intercalated ion,,True,0.0,,-0.1661,-0.0636
118602,Br1Eu1La1O2,4ef51c28d5,LaEuBrO2,"['O', 'Br', 'La', 'Eu']",5,103.026,6.4917,3m,P3m1,156,trigonal,-43.3857,-3.325,-0.0455,3D,,True,-0.0,,-0.0455,-0.0137
118608,Ho2Mo1O8Ti1,4ef645a518,Ho2TiMoO8,"['O', 'Ti', 'Mo', 'Ho']",12,144.9938,6.8905,2,P2,3,monoclinic,-106.8869,-3.2831,-0.0024,3D,2.3714,True,0.0,,-0.0024,-0.0
118682,B2Br12Lu7Y1,4f0363c92e,YLu7(BBr6)2,"['B', 'Br', 'Y', 'Lu']",22,670.457,5.682,m,Pm,6,monoclinic,-110.7653,-1.8023,-0.0782,3D,,True,0.0,,-0.0782,-0.0314
118736,Cl18Lu1Nb6Rb1,4f0b9b9b01,RbLu(NbCl3)6,"['Cl', 'Rb', 'Nb', 'Lu']",26,675.5945,3.5788,3,R3,146,trigonal,-149.0476,-1.9102,-0.014,intercalated ion,1.066,True,-0.0,,-0.014,-0.0058
118757,F1I2La2N1,4f107bb410,La2I2NF,"['N', 'F', 'I', 'La']",6,173.5255,5.4031,-42m,P-4m2,115,tetragonal,-37.8856,-2.4529,-0.1408,2D,,False,0.0,,-0.1408,-0.0677
118791,Bi1F30U6Zn1,4f15e643ba,U6ZnBiF30,"['F', 'Zn', 'Bi', 'U']",38,578.6423,6.5215,2,C2,5,monoclinic,-279.5748,-3.9298,-0.2102,3D,,True,0.0,,-0.2102,-0.2098
118854,F28Ho1Pd1Pt3Y3,4f207dbcba,Y3HoPdPt3F28,"['F', 'Y', 'Pd', 'Ho', 'Pt']",36,523.8008,5.2475,1,P1,1,triclinic,-205.1124,-2.8949,-0.0123,3D,1.3068,True,0.0,,-0.0123,-0.0123
118861,Cs2O24P8Pd2,4f212bfa18,CsP4PdO12,"['O', 'P', 'Pd', 'Cs']",36,552.7784,3.3357,2,P2_1,4,monoclinic,-258.5376,-2.3425,-0.04,intercalated ion,0.666,True,0.0,,-0.04,-0.0396
118876,F30Hf2Ho1Y1Zr4,4f2362ecd8,YHoHf2Zr4F30,"['F', 'Y', 'Zr', 'Ho', 'Hf']",38,518.2332,4.9527,2,C2,5,monoclinic,-280.4671,-4.1571,-0.0059,3D,5.7142,True,0.0,,-0.0059,-0.0053
118922,Ge4O48Sr12Ti8Y8,4f2a4b687b,Sr3Y2Ti2GeO12,"['O', 'Ti', 'Ge', 'Sr', 'Y']",80,1188.9906,4.4749,1,P1,1,triclinic,-668.9923,-3.4729,-0.0144,intercalated ion,,True,0.0,,-0.0144,-0.0142
118925,Br16Cd1Ga4Ge1,4f2ada91f3,CdGa4GeBr16,"['Ga', 'Ge', 'Br', 'Cd']",22,826.8698,3.4991,1,P1,1,triclinic,-70.3228,-1.2033,-0.0071,1D,2.7939,True,0.0,,-0.0071,-0.0071
118930,F34Pa1S1,4f2bf9343f,PaSF34,"['F', 'S', 'Pa']",36,653.7855,2.3089,1,P1,1,triclinic,-127.4002,-1.3544,-0.945,0D,,True,0.0,,-0.945,-0.5427
118972,Bi4La1O14Y3,4f320907ed,LaY3(Bi2O7)2,"['O', 'Y', 'La', 'Bi']",22,327.5345,7.43,1,P1,1,triclinic,-167.5108,-2.652,-0.0515,3D,,True,0.0,,-0.0515,-0.0351
119043,Bi3Ho1O14Sb2Tb2,4f402aa2f1,Tb2HoBi3(SbO7)2,"['O', 'Sb', 'Tb', 'Ho', 'Bi']",22,315.2739,8.3072,1,P1,1,triclinic,-160.7109,-2.6209,-0.0179,3D,2.7131,True,-0.0,,-0.0179,-0.0179
119090,F6O4Rh1,4f470ffcc0,Rh(O2F3)2,"['O', 'F', 'Rh']",11,200.2233,2.3296,4mm,I4mm,107,tetragonal,-51.0649,-1.1309,-0.0442,0D,0.002,True,0.0,,-0.0442,-0.0385
119106,Au4Cl24Tb3Y1,4f494e7dd6,Tb3Y(AuCl6)4,"['Cl', 'Y', 'Tb', 'Au']",32,978.754,3.74,1,P1,1,triclinic,-134.0135,-1.7557,-0.0313,3D,1.5984,True,0.0,,-0.0313,-0.0225
119184,Br12Cs2Pa1Ta1,4f59658d13,Cs2PaTaBr12,"['Br', 'Cs', 'Ta', 'Pa']",16,691.3871,3.9308,m,Pm,6,monoclinic,-71.7269,-1.8075,-0.0644,intercalated ion,,True,0.0,,-0.0644,-0.0431
119187,Li4O20Si4Ta2W2,4f5a378333,Li2TaSi2WO10,"['Li', 'O', 'Si', 'Ta', 'W']",32,393.6318,5.0186,2,P2_1,4,monoclinic,-271.5797,-2.9266,-0.0101,intercalated ion,2.4139,True,0.0,,-0.0101,-0.0022
119228,Mg1O12Os1Sm5,4f607b33fe,Sm5MgOsO12,"['O', 'Mg', 'Sm', 'Os']",19,266.6742,7.2127,2,C2,5,monoclinic,-157.1488,-3.2342,-0.0013,3D,,True,0.0,,-0.0013,-0.0012
119267,Ag2F12Os1Rh1,4f6699323f,Ag2OsRhF12,"['F', 'Rh', 'Ag', 'Os']",16,254.7259,4.8035,1,P1,1,triclinic,-76.5947,-1.8375,-0.0411,3D,0.0075,True,0.0,,-0.0411,-0.0407
119294,Al4Cl16Sb4Te4,4f6b2d9f35,AlSbTeCl4,"['Al', 'Cl', 'Sb', 'Te']",28,907.4871,3.0606,-4,I-4,82,tetragonal,-115.1937,-1.4838,-0.0163,0D,1.9505,False,0.0,,-0.0163,-0.0121
119297,Br10C2Sm1Tb5,4f6b9a3ede,Tb5Sm(CBr5)2,"['C', 'Br', 'Sm', 'Tb']",18,543.0909,5.4059,1,P1,1,triclinic,-96.6622,-1.886,-0.0255,3D,0.5632,True,0.0,,-0.0255,-0.0136
119300,Br3S24Sm1,4f6bec45e6,Sm(S8Br)3,"['S', 'Br', 'Sm']",28,925.4042,2.0808,3m,R3m,160,trigonal,-129.364,-0.7307,-0.4027,0D,,True,0.0,,-0.4027,-0.3932
119306,F30Np7Pr1,4f6c57ff19,PrNp7F30,"['F', 'Pr', 'Np']",38,626.5577,6.2807,2,C2,5,monoclinic,-302.0257,-3.9281,-0.0268,3D,inf,True,0.0,,-0.0268,-0.0265
119310,Ac1Cd1Cu4O8,4f6cdc183c,AcCd(CuO2)4,"['O', 'Cu', 'Cd', 'Ac']",14,169.4041,7.0732,-4,I-4,82,tetragonal,-82.8301,-1.5575,-0.0139,3D,0.0015,True,0.0,,-0.0139,-0.0131
119322,As2Ce1Ir2O2Sr1,4f6e4a8a34,SrCeAs2(IrO)2,"['O', 'As', 'Sr', 'Ce', 'Ir']",8,145.8213,9.0418,4mm,P4mm,99,tetragonal,-59.7572,-1.9055,-0.0392,intercalated ion,0.0019,False,0.0,,-0.0392,-0.004
119334,Br18Ir1Rb6V3,4f707cffed,Rb6V3IrBr18,"['V', 'Br', 'Rb', 'Ir']",28,944.6194,4.0363,3m,P3m1,156,trigonal,-115.0294,-1.5568,-0.0057,intercalated ion,0.0035,True,0.0,,-0.0057,-0.0056
119335,Br18C1Hf4In4Zr2,4f7187ad43,Hf4Zr2In4CBr18,"['C', 'Br', 'Zr', 'In', 'Hf']",29,926.2034,5.0307,1,P1,1,triclinic,-151.4673,-1.5464,-0.0457,1D,1.2001,True,0.0,,-0.0457,-0.0173
119346,As2Ca4La2O12,4f735552d6,Ca2LaAsO6,"['O', 'Ca', 'As', 'La']",20,305.5256,4.2391,mm2,Cmc2_1,36,orthorhombic,-148.0828,-3.0747,-0.0178,intercalated ion,2.7368,True,0.0,,-0.0178,-0.0178
119364,Ag1Cl8I3Pd2,4f76b9a794,AgPd2I3Cl8,"['Cl', 'Pd', 'Ag', 'I']",14,579.1073,2.8245,2,C2,5,monoclinic,-42.9307,-0.7413,-0.0286,2D,1.0665,True,0.0,,-0.0286,-0.0273
119414,F18I2Ru1,4f7e71208e,Ru(IF9)2,"['F', 'Ru', 'I']",21,422.5883,2.7382,1,P1,1,triclinic,-85.8625,-1.8635,-0.019,0D,,True,-0.0,,-0.019,-0.0161
119420,Cl18Re1Tc2W3,4f7fc7261b,ReTc2(WCl6)3,"['Cl', 'Tc', 'W', 'Re']",24,709.3998,3.6794,m,Cm,8,monoclinic,-134.7987,-1.2285,-0.0146,2D,0.003,True,0.0,,-0.0146,-0.0103
119463,Ga3O1Si3Zr10,4f847423c0,Zr10Ga3Si3O,"['O', 'Si', 'Ga', 'Zr']",17,316.8759,6.4019,3m,P31m,157,trigonal,-132.6473,-0.9919,-0.0291,3D,0.004,True,0.0,,-0.0291,-0.0186
119482,Br2Cs12Pr2Te8,4f87aa25f0,Cs6PrTe4Br,"['Br', 'Te', 'Cs', 'Pr']",24,1261.3441,4.0249,6mm,P6_3mc,186,hexagonal,-83.7599,-1.4597,-0.0539,intercalated ion,2.3279,True,0.0,,-0.0539,-0.0034
119603,F28Np1Pr3Zr4,4f9b757c56,Pr3Zr4NpF28,"['F', 'Zr', 'Pr', 'Np']",36,623.1302,4.148,1,P1,1,triclinic,-264.3931,-4.1497,-0.0082,3D,0.1847,True,0.0,,-0.0082,-0.0079
119631,Ca1Cd1Cu4O8,4f9fbd29a7,CaCd(CuO2)4,"['O', 'Ca', 'Cu', 'Cd']",14,156.5996,5.6695,-4,I-4,82,tetragonal,-78.4965,-1.3991,-0.0004,intercalated ion,0.5339,True,0.0,,-0.0004,-0.0004
119646,Ho5O12Pd1Rh1,4fa1e92872,Ho5PdRhO12,"['O', 'Rh', 'Pd', 'Ho']",19,252.0603,8.0765,2,C2,5,monoclinic,-152.1654,-3.0176,-0.0559,3D,0.3545,True,0.0,,-0.0559,-0.0445