Unnamed: 0,Composition,MaterialId,Reduced Formula,Elements,NSites,Volume,Density,Point Group,Space Group,Space Group Number,Crystal System,Corrected Energy,Formation Energy Per Atom,Decomposition Energy Per Atom,Dimensionality Cheon,Bandgap,Is Train,Decomposition Energy Per Atom All,Decomposition Energy Per Atom Relative,Decomposition Energy Per Atom MP,Decomposition Energy Per Atom MP OQMD
112807,Ag4Br2I2Se12,4b2c6676a6,Ag2Se6IBr,"['Se', 'Br', 'Ag', 'I']",20,615.3846,4.8371,222,P222_1,17,orthorhombic,-69.4769,-0.4937,-0.1305,3D,1.4031,True,0.0,,-0.1305,-0.0597
112825,La4O19Pd5Se1,4b302b7064,La4Pd5SeO19,"['O', 'Se', 'Pd', 'La']",29,371.7052,6.57,2,C2,5,monoclinic,-201.0094,-1.9951,-0.1282,3D,1.1706,True,0.0,,-0.1282,-0.0881
112826,Bi2O18Rb4Si6,4b3077637c,Rb2Si3BiO9,"['O', 'Si', 'Rb', 'Bi']",30,499.7659,4.0414,3,R3,146,trigonal,-214.8839,-2.7189,-0.0309,intercalated ion,,False,-0.0,,-0.0309,-0.0182
112851,Br6Eu1Na1Y1,4b359becc7,NaEuYBr6,"['Na', 'Br', 'Y', 'Eu']",9,351.7563,3.5088,3,R3,146,trigonal,-48.1221,-2.2461,-0.0094,intercalated ion,,True,0.0,,-0.0094,-0.0017
112859,Cd1Cu4O8Tb1,4b36eb5530,TbCd(CuO2)4,"['O', 'Cu', 'Cd', 'Tb']",14,156.4909,6.9345,-4,I-4,82,tetragonal,-83.7532,-1.5868,-0.0484,3D,0.0033,True,0.0,,-0.0484,-0.0319
112909,Br1Cl5S1,4b3fed1ab8,SBrCl5,"['S', 'Cl', 'Br']",7,267.8744,1.7929,1,P1,1,triclinic,-19.5319,-0.6451,-0.0865,0D,1.5071,True,0.0,,-0.0865,-0.0775
112986,Ce4F20Rb2Sm1Tb1,4b4d3606c8,Rb2TbCe4SmF20,"['F', 'Rb', 'Ce', 'Sm', 'Tb']",28,451.8063,5.2214,4mm,I4mm,107,tetragonal,-190.781,-4.1966,-0.018,intercalated ion,0.1871,True,0.0,,-0.018,-0.0044
113146,Ho3La1O14Ta2Tb2,4b673cd560,LaTb2Ho3Ta2O14,"['O', 'La', 'Tb', 'Ho', 'Ta']",22,303.284,8.4178,1,P1,1,triclinic,-206.2702,-3.8787,-0.0168,3D,3.549,False,-0.0,,-0.0168,-0.0167
113158,Br18Cs1Ta6Tb1,4b69a69d4e,CsTb(TaBr3)6,"['Br', 'Cs', 'Tb', 'Ta']",26,814.28,5.7422,3,R3,146,trigonal,-145.256,-1.5044,-0.0085,intercalated ion,1.4674,True,0.0,,-0.0085,-0.0053
113179,Nb4O52P16Rb4,4b6cdc83fc,RbNbP4O13,"['O', 'P', 'Rb', 'Nb']",76,1137.1061,2.9806,222,P2_12_12_1,19,orthorhombic,-594.3608,-2.7122,-0.0231,intercalated ion,,True,0.0,,-0.0231,-0.0194
113241,F35S1,4b77e918d4,SF35,"['F', 'S']",36,667.8625,1.733,1,P1,1,triclinic,-97.0245,-0.7218,-0.3125,intercalated ion,,True,0.0,,-0.3125,-0.3125
113281,Ga5La3O14Pt1,4b7d2295d9,La3Ga5PtO14,"['O', 'Ga', 'La', 'Pt']",23,312.1732,6.3002,32,P321,150,trigonal,-166.8413,-2.6761,-0.0028,3D,2.3635,False,0.0,,-0.0028,-0.0028
113293,As4Cd8Cl4O16,4b7f3b27eb,Cd2AsClO4,"['O', 'Cl', 'As', 'Cd']",32,559.5159,4.7389,mm2,Pna2_1,33,orthorhombic,-165.2022,-1.6444,-0.0098,3D,1.9309,False,0.0,,-0.0098,-0.004
113344,Au4Ca1O32S8Tl1,4b87222898,CaTlAu4(SO4)8,"['O', 'S', 'Ca', 'Au', 'Tl']",46,745.2837,4.0124,2,C2,5,monoclinic,-281.3398,-1.575,-0.0378,intercalated ion,,True,0.0,,-0.0378,-0.0372
113390,F9H5V1,4b8ffc404a,VH5F9,"['H', 'F', 'V']",15,196.5736,1.9173,1,P1,1,triclinic,-76.0223,-2.1848,-0.0522,intercalated molecule,,True,0.0,,-0.0522,-0.0362
113442,O6Rb4Ru2,4b9a75c81c,Rb2RuO3,"['O', 'Rb', 'Ru']",12,303.6161,3.5003,32,P321,150,trigonal,-71.2741,-1.5929,-0.0699,intercalated ion,1.0057,True,0.0,,-0.0699,-0.033
113445,F20Sr2Tc4,4b9b0784d7,SrTc2F10,"['F', 'Sr', 'Tc']",26,492.638,3.1928,m,Pc,7,monoclinic,-156.8571,-2.8387,-0.0736,intercalated ion,0.9352,True,0.0,,-0.0736,-0.0736
113516,O24Pb8Tc1V5,4ba651ef4e,V5Tc(PbO3)8,"['O', 'V', 'Tc', 'Pb']",38,703.4695,5.6517,-4,I-4,82,tetragonal,-282.5085,-2.0599,-0.0365,3D,1.2902,False,0.0,,-0.0365,-0.0365
113526,O12Pr5Re1Ru1,4ba889779c,Pr5ReRuO12,"['O', 'Ru', 'Pr', 'Re']",19,285.5341,6.8845,2,C2,5,monoclinic,-164.8503,-3.1501,-0.0017,3D,0.6122,True,0.0,,-0.0017,-0.0017
113545,Ba2Ce1O16P4Th1,4bab56e9f0,Ba2CeTh(PO4)4,"['O', 'P', 'Ba', 'Ce', 'Th']",24,331.9982,5.1352,2,C2,5,monoclinic,-198.5837,-3.3574,-0.0203,intercalated ion,1.3473,False,0.0,,-0.0203,-0.0017
113553,Ba4F24Na4Sc4,4bacc54da1,BaNaScF6,"['F', 'Na', 'Sc', 'Ba']",36,620.7351,3.4163,222,P2_12_12_1,19,orthorhombic,-227.5002,-3.9814,-0.0145,intercalated ion,6.9195,False,0.0,,-0.0145,-0.0047
113574,Br2C4Pu1Sm3,4bb0ddedc9,Sm3Pu(C2Br)2,"['C', 'Br', 'Sm', 'Pu']",10,198.7629,7.5434,1,P1,1,triclinic,-76.726,-0.8121,-0.0755,3D,0.0005,True,0.0,,-0.0755,-0.001
113600,Ho3O14Pr1Ta2Tb2,4bb45efe02,Tb2PrHo3Ta2O14,"['O', 'Pr', 'Tb', 'Ho', 'Ta']",22,302.1816,8.4595,1,P1,1,triclinic,-205.6921,-3.8595,-0.0154,3D,3.5142,True,0.0,,-0.0154,-0.0115
113652,O18P6Pb1Zn1,4bbe21336c,ZnP6PbO18,"['O', 'P', 'Zn', 'Pb']",26,397.2156,3.1205,32,P312,149,trigonal,-188.6445,-2.3896,-0.0019,3D,1.707,True,0.0,,-0.0019,-0.0013
113677,As1Br12Ca12P3,4bc11d90cb,Ca12As(PBr4)3,"['P', 'Ca', 'As', 'Br']",28,828.0814,3.2237,32,R32,155,trigonal,-121.5102,-2.0322,-0.1358,intercalated ion,,True,0.0,,-0.1358,-0.0211
113688,F37La1,4bc3037f4d,LaF37,"['F', 'La']",38,696.2833,2.0077,1,P1,1,triclinic,-106.3634,-0.808,-0.3351,0D,,True,0.0,,-0.3351,-0.3351
113692,Al2Br28V2,4bc33c5750,AlVBr14,"['Al', 'V', 'Br']",32,1414.8109,2.8088,2,P2_1,4,monoclinic,-103.973,-1.015,-0.3402,intercalated molecule,,True,0.0,,-0.3402,-0.2264
113700,Br1H8Li1N2,4bc4a08b8b,LiH8BrN2,"['H', 'Li', 'N', 'Br']",12,163.9688,1.2449,1,P1,1,triclinic,-54.7035,-0.6119,-0.0244,intercalated ion,4.755,True,0.0,,-0.0244,-0.0223
113754,O13Os1Pb4Pt3,4bce9eb46f,OsPt3Pb4O13,"['O', 'Os', 'Pt', 'Pb']",21,287.1281,10.4809,3m,R3m,160,trigonal,-136.5059,-1.3282,-0.0227,3D,0.0066,True,0.0,,-0.0227,-0.0224
113755,Ca3Np1O12Ti4,4bceb4749c,Ca3NpTi4O12,"['O', 'Ca', 'Ti', 'Np']",20,232.6779,5.2861,m,Pm,6,monoclinic,-180.0529,-3.5065,-0.0079,intercalated ion,0.0078,True,0.0,,-0.0079,-0.0079
113806,Br1S27,4bd8569096,S27Br,"['S', 'Br']",28,1206.0443,1.302,3m,R3m,160,trigonal,-124.9671,-0.4159,-0.3936,intercalated ion,,True,0.0,,-0.3936,-0.3935
113813,Bi1Ce1O2Pr1,4bd8c0f344,CePrBiO2,"['O', 'Ce', 'Pr', 'Bi']",5,109.2548,7.9338,4mm,I4mm,107,tetragonal,-38.8171,-2.8634,-0.0128,3D,0.0003,True,0.0,,-0.0128,-0.0047
113862,Au2Cs2O24P8,4be25a51b3,CsP4AuO12,"['O', 'P', 'Cs', 'Au']",36,593.0016,3.6165,2,P2_1,4,monoclinic,-252.9468,-2.2931,-0.014,intercalated ion,1.7035,True,0.0,,-0.014,-0.0139
113923,O24Pr7Sb1W4,4beb89e88c,Pr7Sb(WO6)4,"['O', 'Sb', 'Pr', 'W']",36,535.1318,6.9119,1,P1,1,triclinic,-317.8754,-3.0471,-0.0037,3D,,True,0.0,,-0.0037,-0.0037
113935,Ir4Lu1O24Pr7,4bed15441c,Pr7Lu(IrO6)4,"['O', 'Pr', 'Lu', 'Ir']",36,493.5752,7.7856,1,P1,1,triclinic,-287.3294,-2.6455,-0.0568,3D,,False,0.0,,-0.0568,-0.0428
113977,F12Sr1Ta2,4bf3d0c0cf,SrTa2F12,"['F', 'Sr', 'Ta']",15,277.2954,4.0571,1,P1,1,triclinic,-104.7818,-3.7626,-0.0188,intercalated ion,6.34,True,-0.0,,-0.0188,-0.0188
114073,Bi3Cu4O4Se4Sr1,4c0311e1a3,SrCu4Bi3(SeO)4,"['O', 'Cu', 'Se', 'Sr', 'Bi']",16,296.7135,7.5473,4mm,I4mm,107,tetragonal,-82.7603,-1.2018,-0.0474,intercalated ion,0.0036,True,0.0,,-0.0474,-0.0367
114106,Al2Br8I6Se2,4c09545934,AlSeI3Br4,"['Al', 'Se', 'Br', 'I']",18,806.1769,3.3215,1,P1,1,triclinic,-53.9824,-0.9589,-0.1433,0D,1.6908,True,0.0,,-0.1433,-0.068
114107,Gd10Li12O48Pr2Te8,4c0976edb8,Li6PrGd5(TeO6)4,"['Li', 'O', 'Te', 'Pr', 'Gd']",80,990.5704,6.2467,2,C2,5,monoclinic,-655.5977,-2.7465,-0.046,intercalated ion,,True,0.0,,-0.046,-0.0098
114116,Ag3Au3O8,4c0b03b225,Ag3Au3O8,"['O', 'Ag', 'Au']",14,203.6642,8.4998,1,P1,1,triclinic,-64.2707,-0.4548,-0.0121,3D,0.0022,False,0.0,,-0.0121,-0.012
114130,Br2F24Ir1Np1,4c0c6d3277,NpIr(BrF12)2,"['F', 'Br', 'Ir', 'Np']",28,497.9415,3.4848,m,Pm,6,monoclinic,-125.1189,-1.9351,-0.0416,0D,0.004,True,0.0,,-0.0416,-0.0406
114147,Bi3Eu1Lu4O14,4c0edf8c9e,EuLu4Bi3O14,"['O', 'Eu', 'Lu', 'Bi']",22,307.8325,9.1852,1,P1,1,triclinic,-172.9339,-2.8917,-0.059,3D,,True,0.0,,-0.059,-0.033
114210,Bi5O18Pt3Sm1,4c1933462e,SmBi5(PtO6)3,"['O', 'Sm', 'Pt', 'Bi']",27,387.7814,8.8576,2,C2,5,monoclinic,-173.7439,-1.5666,-0.0295,3D,0.2792,False,0.0,,-0.0295,-0.0289
114251,F36Lu1Th1,4c2045258c,LuThF36,"['F', 'Lu', 'Th']",38,648.7675,2.7923,1,P1,1,triclinic,-129.3721,-1.2796,-0.2188,0D,,True,0.0,,-0.2188,-0.2128
114279,As2Br4F32O4V2,4c25a11f87,VAsBr2(OF8)2,"['O', 'F', 'V', 'As', 'Br']",44,703.8834,2.9331,1,P1,1,triclinic,-200.1698,-1.9358,-0.0141,0D,2.9688,True,0.0,,-0.0141,-0.0091
114290,Cl18Pa2Ti3U1,4c277cb881,UPa2(TiCl6)3,"['Cl', 'Ti', 'Pa', 'U']",24,749.382,3.2836,1,P1,1,triclinic,-139.8168,-2.189,-0.0433,2D,0.002,True,-0.0,,-0.0433,-0.0253
114321,Br18Hf1Ta2Zr1,4c2bed79f6,HfZr(TaBr9)2,"['Br', 'Zr', 'Hf', 'Ta']",22,947.9662,3.6258,m,Pm,6,monoclinic,-106.8343,-1.5977,-0.02,0D,2.0309,True,0.0,,-0.02,-0.0029
114329,La1O24Pr1W4Y6,4c2d4c8f0f,LaPrY6(WO6)4,"['O', 'Y', 'La', 'Pr', 'W']",36,480.8211,6.6743,2,P2,3,monoclinic,-337.3357,-3.2843,-0.0073,3D,3.6093,False,0.0,,-0.0073,-0.0073
114332,Br35Ta1,4c2e722c6a,TaBr35,"['Br', 'Ta']",36,1793.7135,2.7565,1,P1,1,triclinic,-93.0608,-0.6642,-0.4327,0D,,True,0.0,,-0.4327,-0.4326
114351,O19P5Rb1Ru3,4c3243cad4,RbP5Ru3O19,"['O', 'P', 'Rb', 'Ru']",28,414.8403,3.3925,m,Cm,8,monoclinic,-211.8994,-2.2149,-0.0376,intercalated ion,0.0019,True,-0.0,,-0.0376,-0.0371
114450,O18Sc4Tm2W3,4c4009560f,Tm2Sc4(WO6)3,"['O', 'Sc', 'Tm', 'W']",27,340.7469,6.614,2,C2,5,monoclinic,-250.3056,-3.2625,-0.0304,3D,3.44,True,0.0,,-0.0304,-0.0068
114508,Cl12Ir3Tl1,4c4b3d3161,Tl(IrCl4)3,"['Cl', 'Ir', 'Tl']",16,433.8244,4.618,2,C2,5,monoclinic,-67.6122,-1.0345,-0.0335,3D,,False,0.0,,-0.0335,-0.0329
114528,In1Na4O6Sb1,4c4dda22bd,Na4InSbO6,"['O', 'Na', 'In', 'Sb']",12,152.4941,4.6228,2,C2,5,monoclinic,-66.131,-2.0227,-0.0232,intercalated ion,2.2427,True,-0.0,,-0.0232,-0.0227
114529,Ir1O12Pr5Sn1,4c4de3d14a,Pr5SnIrO12,"['O', 'Sn', 'Pr', 'Ir']",19,294.9777,6.7972,2,C2,5,monoclinic,-154.8143,-3.0888,-0.0191,3D,0.5332,True,0.0,,-0.0191,-0.0191
114533,Ge1Hg6O7Ti1,4c4e955bc8,TiHg6GeO7,"['O', 'Ti', 'Ge', 'Hg']",15,298.6233,7.9853,m,Cm,8,monoclinic,-69.8435,-1.3981,-0.0099,3D,,True,0.0,,-0.0099,-0.0044
114551,Cl12Pd5Pt1,4c5165dbe1,Pd5PtCl12,"['Cl', 'Pd', 'Pt']",18,518.2928,3.6928,m,Cm,8,monoclinic,-69.8917,-0.8744,-0.0023,0D,1.3502,True,0.0,,-0.0023,-0.0021
114577,Ir3O24Pr8Zr1,4c54632ec9,Pr8Zr(IrO8)3,"['O', 'Zr', 'Pr', 'Ir']",36,542.0385,6.6758,1,P1,1,triclinic,-294.0735,-2.8337,-0.0551,3D,0.005,True,0.0,,-0.0551,-0.0488
114635,Ag2Cs4O8P2,4c5e41d260,Cs2AgPO4,"['O', 'P', 'Ag', 'Cs']",16,330.9023,4.7036,mm2,Cmc2_1,36,orthorhombic,-93.9224,-2.1416,-0.0086,2D,2.3011,True,0.0,,-0.0086,-0.0013
114665,Br12Ir1Mo1Se1,4c631761a8,MoIrSeBr12,"['Se', 'Br', 'Mo', 'Ir']",15,586.6362,3.7533,m,Cm,8,monoclinic,-54.562,-0.7826,-0.1402,0D,0.0007,True,-0.0,,-0.1402,-0.0017
114703,Br12Ir1Na1Pr5Y1,4c68ebf1e7,NaPr5YIrBr12,"['Na', 'Br', 'Y', 'Pr', 'Ir']",20,733.6234,4.4534,1,P1,1,triclinic,-100.6319,-2.0228,-0.0171,intercalated ion,0.0718,False,-0.0,,-0.0171,-0.016
114730,Cd1O18Os6Pr1,4c6d97c89b,PrCd(OsO3)6,"['O', 'Cd', 'Pr', 'Os']",26,328.5844,8.5037,m,Pm,6,monoclinic,-206.1101,-1.6915,-0.0276,3D,0.0019,True,-0.0,,-0.0276,-0.0102
114734,As8O36Sr16,4c6df8830a,Sr4As2O9,"['O', 'As', 'Sr']",60,1015.3665,4.2149,2,P2_1,4,monoclinic,-408.6894,-2.771,-0.019,intercalated ion,,False,0.0,,-0.019,-0.019
114761,Ba8Ga8La4O30Sr4,4c72eeb673,Ba4Sr2La2Ga4O15,"['O', 'Ga', 'Sr', 'Ba', 'La']",54,856.4967,5.8986,m,Cc,9,monoclinic,-375.8488,-2.9876,-0.0088,intercalated ion,3.3838,True,-0.0,,-0.0088,-0.008
114798,Al1Gd5O12W1,4c78535562,Gd5AlWO12,"['O', 'Al', 'Gd', 'W']",19,261.2357,7.5583,2,C2,5,monoclinic,-215.6389,-3.641,-0.0829,3D,0.0007,True,0.0,,-0.0829,-0.076
114814,F3S24Zn1,4c7ad82748,Zn(S8F)3,"['F', 'S', 'Zn']",28,924.1161,1.6028,3m,R3m,160,trigonal,-125.7002,-0.694,-0.3259,0D,,True,0.0,,-0.3259,-0.3259
114878,B1C3Cl12Pr12,4c86199597,Pr12B(CCl4)3,"['B', 'C', 'Cl', 'Pr']",28,723.7107,4.9634,32,R32,155,trigonal,-163.1058,-1.7569,-0.0406,3D,0.0024,True,0.0,,-0.0406,-0.0136
114928,O12Rb2Sc1Te3,4c8ced1981,Rb2Sc(TeO4)3,"['O', 'Sc', 'Rb', 'Te']",18,284.1003,4.6215,2,C2,5,monoclinic,-111.7934,-1.9275,-0.0414,intercalated ion,0.0061,True,0.0,,-0.0414,-0.0271
114960,Br16Ga1Os2Sc12,4c92f3bbfa,Sc12Ga(OsBr8)2,"['Sc', 'Ga', 'Br', 'Os']",31,987.7034,3.8132,1,P1,1,triclinic,-179.0175,-1.6566,-0.0313,intercalated ion,0.0574,False,0.0,,-0.0313,-0.0133
114966,As2Cl7I3,4c93f10b6a,As2I3Cl7,"['Cl', 'As', 'I']",12,566.486,2.2827,1,P1,1,triclinic,-37.9363,-0.9255,-0.063,0D,,True,0.0,,-0.063,-0.0592
114976,Cl15Pr1S1Th5,4c9535815d,PrTh5SCl15,"['S', 'Cl', 'Pr', 'Th']",22,695.8678,4.4503,4mm,I4mm,107,tetragonal,-129.2025,-2.5222,-0.0208,3D,1.1782,False,0.0,,-0.0208,-0.02
114989,O12Pr5Rh1W1,4c97fb5761,Pr5RhWO12,"['O', 'Rh', 'Pr', 'W']",19,289.8984,6.7778,2,C2,5,monoclinic,-163.6453,-3.1602,-0.0168,3D,1.3019,True,0.0,,-0.0168,-0.0168
114990,Au3F24Re1,4c982bdd8c,Re(AuF8)3,"['F', 'Re', 'Au']",28,423.6862,4.8327,m,Pm,6,monoclinic,-109.0601,-1.4614,-0.0497,0D,0.0026,True,0.0,,-0.0497,-0.003
114993,Cl6Eu1Pt1,4c996b9ceb,EuPtCl6,"['Cl', 'Eu', 'Pt']",8,258.4407,3.5966,2,C2,5,monoclinic,-40.7443,-1.6613,-0.0799,2D,0.1649,True,0.0,,-0.0799,-0.0487
115000,Ga4O24Pt4Sb4,4c9a85cc3c,GaSbPtO6,"['O', 'Ga', 'Sb', 'Pt']",36,406.0191,7.8944,mm2,P4_2nm,102,tetragonal,-232.4325,-1.688,-0.0088,3D,1.3161,True,0.0,,-0.0088,-0.0085
115084,Cl1I10W1,4ca7c66dd1,WI10Cl,"['Cl', 'I', 'W']",12,628.7054,3.931,1,P1,1,triclinic,-35.7478,-0.4751,-0.2061,1D,0.1564,True,0.0,,-0.2061,-0.1577
115135,Cl14Ga2S2,4cb03ad2c2,GaSCl7,"['S', 'Cl', 'Ga']",18,568.0067,2.0462,m,Pc,7,monoclinic,-60.1702,-1.109,-0.0575,0D,2.7214,True,0.0,,-0.0575,-0.0546
115140,F14Pa2Pd2,4cb1224752,PaPdF7,"['F', 'Pd', 'Pa']",18,294.2238,5.3102,2,P2_1,4,monoclinic,-114.0492,-3.2166,-2.3839,3D,,True,0.0,,-2.3839,-0.33
115157,Al5O4Pd3Ti12,4cb3ecb8dc,Ti12Al5Pd3O4,"['O', 'Al', 'Ti', 'Pd']",24,322.8376,5.6197,3,R3,146,trigonal,-181.8167,-1.3755,-0.0468,3D,,True,0.0,,-0.0468,-0.0305
115185,Cl2F2I4Ta2,4cb80585a8,TaI2ClF,"['F', 'Cl', 'I', 'Ta']",10,333.7126,4.8686,mm2,Imm2,44,orthorhombic,-54.4632,-1.7132,-0.0031,1D,1.4421,False,0.0,,-0.0031,-0.0026
115261,O12Os2Rh1Ru3,4cc56e89fb,Os2Ru3RhO12,"['O', 'Ru', 'Rh', 'Os']",18,196.2138,8.2815,mm2,Cmm2,35,orthorhombic,-142.703,-1.427,-0.0465,3D,0.0013,True,0.0,,-0.0465,-0.0426
115270,Bi1Cl2Sn5Tb10,4cc72eaeb7,Tb10Sn5BiCl2,"['Cl', 'Sn', 'Tb', 'Bi']",18,479.9451,8.5205,mm2,Amm2,38,orthorhombic,-93.1611,-1.0657,-0.0306,3D,0.0001,True,0.0,,-0.0306,-0.0265
115292,Cl8Hf1Zr1,4ccbb47f87,HfZrCl8,"['Cl', 'Zr', 'Hf']",10,335.2319,2.7409,2,P2,3,monoclinic,-56.2697,-2.2977,-0.0017,1D,3.6641,True,0.0,,-0.0017,-0.0001
115340,Hf16Ir6O4Rh2,4cd168f30d,Hf8Ir3RhO2,"['O', 'Rh', 'Hf', 'Ir']",28,470.7841,15.0926,mm2,Imm2,44,orthorhombic,-288.3848,-1.4828,-0.0188,3D,0.0062,True,0.0,,-0.0188,-0.0062
115382,Cl8Gd1Ho1,4cd82bc3bf,GdHoCl8,"['Cl', 'Gd', 'Ho']",10,411.0384,2.4474,2,C2,5,monoclinic,-56.5847,-2.3138,-0.1644,intercalated molecule,2.0749,True,0.0,,-0.1644,-0.0014
115450,As2Eu2Ir1O2Ru1,4ce7c692fb,Eu2As2IrRuO2,"['O', 'As', 'Ru', 'Eu', 'Ir']",8,144.9579,8.9243,-42m,P-4m2,115,tetragonal,-72.4077,-1.8121,-0.0701,3D,,True,0.0,,-0.0701,-0.0103
115457,Bi3O14Sb2Tl3,4ce8c54699,Tl3Bi3(SbO7)2,"['O', 'Sb', 'Tl', 'Bi']",22,314.4423,9.0177,1,P1,1,triclinic,-131.0366,-1.5796,-0.0045,3D,,True,0.0,,-0.0045,-0.0045
115517,F1Si6Sr10,4cf1efd292,Sr10Si6F,"['F', 'Si', 'Sr']",17,515.1855,3.4285,-42m,I-42m,121,tetragonal,-63.7688,-0.73,-0.0181,intercalated ion,,True,0.0,,-0.0181,-0.0174
115530,Al1Gd3O12Ru1Tb2,4cf3adfe4c,Tb2Gd3AlRuO12,"['O', 'Al', 'Ru', 'Gd', 'Tb']",19,255.9537,7.199,1,P1,1,triclinic,-187.629,-3.3545,-0.0186,3D,0.0101,False,0.0,,-0.0186,-0.0126
115543,Ca3Eu1Hf2O24Si8,4cf5648be1,Ca3EuHf2(SiO3)8,"['O', 'Si', 'Ca', 'Eu', 'Hf']",38,531.1,3.8703,m,Pm,6,monoclinic,-330.7319,-3.483,-0.0136,intercalated ion,,True,0.0,,-0.0136,-0.0035
115560,Au1Cl6Rh2Te11,4cf91d19ba,Te11Rh2AuCl6,"['Cl', 'Rh', 'Te', 'Au']",20,636.5073,5.2675,1,P1,1,triclinic,-78.8645,-0.7597,-0.1868,1D,0.0976,False,0.0,,-0.1868,-0.0428
115595,Ho1O18Os6Tb1,4cfe4d473f,TbHo(OsO3)6,"['O', 'Tb', 'Ho', 'Os']",26,314.6016,9.2539,m,Pm,6,monoclinic,-216.2475,-1.9463,-0.0327,3D,0.0008,True,0.0,,-0.0327,-0.0259
115615,Cl2Eu2F1O1,4d00b9a933,Eu2Cl2OF,"['O', 'F', 'Cl', 'Eu']",6,126.3899,5.3845,-42m,P-4m2,115,tetragonal,-50.8223,-3.2803,-0.1179,2D,,True,0.0,,-0.1179,-0.0587
115646,In1O14P4Pa1,4d0505e848,PaIn(P2O7)2,"['O', 'P', 'In', 'Pa']",20,316.4511,3.6403,1,P1,1,triclinic,-160.8815,-2.8845,-0.1887,3D,,True,0.0,,-0.1887,-0.1887
115715,Gd1In6La4O18Tb1,4d116898d8,La4TbGdIn6O18,"['O', 'In', 'La', 'Gd', 'Tb']",30,467.8372,6.5617,3m,P31m,157,trigonal,-232.7311,-2.9568,-0.0091,3D,,True,0.0,,-0.0091,-0.0009
115753,Li4Mg1O6Pt1,4d18b59c04,Li4MgPtO6,"['Li', 'O', 'Mg', 'Pt']",12,111.4636,5.1121,2,C2,5,monoclinic,-68.2823,-1.9406,-0.036,intercalated ion,0.0006,True,0.0,,-0.036,-0.0127
115813,Au2Cl14Pu1Te1,4d2304a69f,PuTe(AuCl7)2,"['Cl', 'Te', 'Au', 'Pu']",18,629.5664,3.3283,1,P1,1,triclinic,-73.9863,-1.3415,-0.1803,0D,0.0169,True,0.0,,-0.1803,-0.112
115822,Ag1Au4Ho1O8,4d250de29e,HoAg(AuO2)4,"['O', 'Ag', 'Ho', 'Au']",14,188.6304,10.4639,-4,I-4,82,tetragonal,-76.0685,-1.141,-0.04,3D,0.7692,True,0.0,,-0.04,-0.0275
115838,Ac4Al1Br2Os3,4d282785b9,Ac4AlOs3Br2,"['Al', 'Br', 'Os', 'Ac']",10,317.8632,8.7006,3m,P3m1,156,trigonal,-65.4606,-0.8274,-0.0777,intercalated ion,,True,0.0,,-0.0777,-0.0777
115847,Au1Br12Ir1La12Rh2,4d29a45b08,La12IrRh2AuBr12,"['Br', 'Rh', 'La', 'Ir', 'Au']",28,938.8325,5.6966,2,C2,5,monoclinic,-153.41,-1.7033,-0.0282,3D,inf,True,0.0,,-0.0282,-0.0278
115885,Ba10O30Re6Te2,4d2f281c3c,Ba5Re3TeO15,"['O', 'Te', 'Ba', 'Re']",48,809.0385,6.6207,6mm,P6_3cm,185,hexagonal,-374.3589,-2.6203,-0.0204,intercalated ion,,True,0.0,,-0.0204,-0.0157
115898,Br7La8Pt1Rh3,4d3091126c,La8PtRh3Br7,"['Br', 'Rh', 'La', 'Pt']",19,549.9486,6.5654,m,Cm,8,monoclinic,-110.1019,-1.6311,-0.0423,3D,,False,0.0,,-0.0423,-0.0422
115969,Cs12F2Ho2S8,4d3d7b6309,Cs6HoS4F,"['F', 'S', 'Cs', 'Ho']",24,836.5114,4.4054,6mm,P6_3mc,186,hexagonal,-98.9048,-1.7534,-0.0261,intercalated ion,,False,-0.0,,-0.0261,-0.0103
115972,Ir3O14Sn15,4d3e106dd2,Sn15Ir3O14,"['O', 'Sn', 'Ir']",32,583.357,7.3477,m,Cm,8,monoclinic,-203.5349,-1.4876,-0.0067,3D,0.0157,True,0.0,,-0.0067,-0.0066
116046,Ce7O20Pa2Pu1,4d4c372de3,Ce7PuPa2O20,"['O', 'Ce', 'Pa', 'Pu']",30,409.3891,8.1402,1,P1,1,triclinic,-294.0795,-4.0097,-0.0333,3D,,False,0.0,,-0.0333,-0.0333
116064,As1O6Pt1Sr1,4d4f26ad32,SrAsPtO6,"['O', 'As', 'Sr', 'Pt']",9,124.5758,6.0466,32,P312,149,trigonal,-58.9258,-1.8687,-0.0178,intercalated ion,0.0049,True,0.0,,-0.0178,-0.017
116106,Ba20O48Ru11Ta1,4d55baadca,Ba20TaRu11O48,"['O', 'Ru', 'Ba', 'Ta']",80,1328.1063,6.0105,m,Pm,6,monoclinic,-584.4462,-2.4336,-0.0261,intercalated ion,,True,0.0,,-0.0261,-0.0224
116149,Ca1Cu4O12Sr5,4d5c43153b,Sr5Ca(CuO3)4,"['O', 'Ca', 'Cu', 'Sr']",22,311.9782,4.92,2,C2,5,monoclinic,-135.1197,-2.2225,-0.0082,intercalated ion,,False,0.0,,-0.0082,-0.0082
116208,Br20Tb3Tl8U1,4d65396a6f,Tb3U(Tl2Br5)4,"['Br', 'Tb', 'Tl', 'U']",32,1070.5227,6.1239,m,Pm,6,monoclinic,-130.2473,-1.6694,-0.0366,intercalated ion,,True,0.0,,-0.0366,-0.0072
116270,Cd1In1Li7O6,4d6febae51,Li7CdInO6,"['Li', 'O', 'Cd', 'In']",15,147.7419,4.179,3,R3,146,trigonal,-76.6163,-1.9928,-0.0191,intercalated ion,2.8685,True,0.0,,-0.0192,-0.0022
116279,Ac4Br5Cl1N2,4d70e4461d,Ac4Br5N2Cl,"['N', 'Cl', 'Br', 'Ac']",12,362.6981,6.2768,m,Cm,8,monoclinic,-70.5903,-2.2833,-0.1497,3D,3.2585,True,0.0,,-0.1497,-0.1492
116281,Br12Cs1Rb3Sc1U1,4d715b660c,CsRb3ScUBr12,"['Sc', 'Br', 'Rb', 'Cs', 'U']",18,711.1628,3.8087,2,P2,3,monoclinic,-77.1214,-2.001,-0.0328,intercalated ion,0.6907,True,-0.0,,-0.0328,-0.0328
116344,Au4Bi3O12Sm1,4d7a00021c,SmBi3(AuO3)4,"['O', 'Sm', 'Au', 'Bi']",20,302.5003,9.6457,m,Pm,6,monoclinic,-116.6769,-1.3909,-0.0194,3D,1.1633,True,0.0,,-0.0194,-0.0156
116353,Ca1O12Rh4Tb3,4d7cde3459,CaTb3(RhO3)4,"['O', 'Ca', 'Rh', 'Tb']",20,236.0024,7.8837,m,Pm,6,monoclinic,-153.9551,-2.4607,-0.0045,intercalated ion,,True,0.0,,-0.0045,-0.0045
116404,Ca1O24P6Sn1Ti3,4d8518eb47,CaTi3Sn(PO4)6,"['O', 'P', 'Ca', 'Ti', 'Sn']",35,466.1427,3.1071,3,R3,146,trigonal,-285.0588,-2.975,-0.0009,intercalated ion,2.838,True,0.0,,-0.0009,-0.0005
116419,Cl8N2Se1,4d875ce739,Se(NCl4)2,"['N', 'Cl', 'Se']",11,445.0427,1.4574,1,P1,1,triclinic,-41.5108,-0.5958,-0.2164,0D,2.0417,True,0.0,,-0.2164,-0.2162