Unnamed: 0,Composition,MaterialId,Reduced Formula,Elements,NSites,Volume,Density,Point Group,Space Group,Space Group Number,Crystal System,Corrected Energy,Formation Energy Per Atom,Decomposition Energy Per Atom,Dimensionality Cheon,Bandgap,Is Train,Decomposition Energy Per Atom All,Decomposition Energy Per Atom Relative,Decomposition Energy Per Atom MP,Decomposition Energy Per Atom MP OQMD
102195,Gd2O12Sm4Te1,442add970e,Sm4Gd2TeO12,"['O', 'Te', 'Sm', 'Gd']",19,280.6417,7.3106,1,P1,1,triclinic,-175.4827,-3.4704,-0.0183,3D,2.3652,True,0.0,,-0.0183,-0.0147
102209,Ho1O14Pr2Ru2Y3,442ca378bd,Pr2Y3Ho(RuO7)2,"['O', 'Y', 'Ru', 'Pr', 'Ho']",22,296.5923,6.3803,m,Pm,6,monoclinic,-190.676,-3.1506,-0.0272,3D,0.2169,False,0.0,,-0.0272,-0.0272
102241,Br6Pr1Ru2Sm1Tb4,4430f04dc3,Tb4PrSm(RuBr3)2,"['Br', 'Ru', 'Pr', 'Sm', 'Tb']",14,434.0939,6.1531,m,Pm,6,monoclinic,-77.3161,-1.4935,-0.0275,3D,,False,0.0,,-0.0275,-0.0268
102272,Br18Nb4Ta2Y1,443694da75,YTa2(Nb2Br9)2,"['Br', 'Y', 'Nb', 'Ta']",25,793.7272,4.7296,1,P1,1,triclinic,-136.6549,-1.4641,-0.0059,intercalated ion,0.1107,False,0.0,,-0.0059,-0.0058
102313,F34Te1W1,443d49d6df,TeWF34,"['F', 'Te', 'W']",36,709.6431,2.2402,1,P1,1,triclinic,-127.2301,-1.2816,-0.2706,0D,,True,0.0,,-0.2706,-0.2702
102462,Eu1Ho2O24Se6Tm1,4455d95d01,EuHo2Tm(SeO4)6,"['O', 'Se', 'Eu', 'Ho', 'Tm']",34,671.8951,3.7282,3,R3,146,trigonal,-232.6653,-2.0296,-0.095,3D,,True,0.0,,-0.095,-0.0791
102507,Br2Ga2Ir2Pr4,445efb231d,Pr2GaIrBr,"['Ga', 'Br', 'Pr', 'Ir']",10,274.394,7.5483,6mm,P6_3mc,186,hexagonal,-57.7541,-1.1624,-0.0357,2D,0.0414,False,0.0,,-0.0357,-0.0127
102515,Br12C2Gd5La1Rb2,445f82403c,Rb2LaGd5(CBr6)2,"['C', 'Br', 'Rb', 'La', 'Gd']",22,718.2824,4.8062,1,P1,1,triclinic,-158.5148,-1.9563,-0.0522,intercalated ion,,True,0.0,,-0.0522,-0.0471
102585,Ce1O12Pr5U1,446d683271,CePr5UO12,"['O', 'Ce', 'Pr', 'U']",19,307.8604,6.8754,1,P1,1,triclinic,-173.8644,-3.861,-0.0755,3D,0.0398,True,0.0,,-0.0755,-0.0613
102646,O22Pr1Si4Sr3Ti5,4479bfb2e7,Sr3PrTi5(Si2O11)2,"['O', 'Si', 'Ti', 'Sr', 'Pr']",35,437.7635,4.2007,m,Cm,8,monoclinic,-301.9679,-3.4881,-0.007,intercalated ion,0.0015,True,0.0,,-0.007,-0.007
102652,B1Cl3H1Rb1,447ac9bda4,RbBHCl3,"['H', 'B', 'Cl', 'Rb']",6,164.5542,2.055,3m,R3m,160,trigonal,-25.4156,-1.4696,-0.0476,intercalated ion,5.1012,True,-0.0,,-0.0476,-0.0161
102746,Ca2Ce1O20U7,4486d6addc,Ca2CeU7O20,"['O', 'Ca', 'Ce', 'U']",30,395.61,9.2614,2,C2,5,monoclinic,-303.6176,-3.8558,-0.0926,intercalated ion,,True,-0.0,,-0.0926,-0.0878
102784,Eu1O13Pb4Sb3,448bfaf69c,EuSb3Pb4O13,"['O', 'Sb', 'Eu', 'Pb']",21,321.9087,8.0164,3m,R3m,160,trigonal,-143.3584,-1.9764,-0.016,3D,0.0006,True,0.0,,-0.016,-0.005
102821,Br8Re6Se14Tc6,44926f4318,Re3Tc3Se7Br4,"['Se', 'Br', 'Tc', 'Re']",34,1001.1,5.7224,3m,R3c,161,trigonal,-228.2119,-0.863,-0.2372,3D,1.5515,True,0.0,,-0.2372,-0.0759
102842,Ho4O14Pr1Ta2Tb1,44960a9d32,TbPrHo4Ta2O14,"['O', 'Pr', 'Tb', 'Ho', 'Ta']",22,301.4541,8.513,2,C2,5,monoclinic,-205.7312,-3.8636,-0.016,3D,3.5206,True,0.0,,-0.016,-0.0125
102854,Ba5C1O13Sc4,4498646c54,Ba5Sc4CO13,"['C', 'O', 'Sc', 'Ba']",23,365.5837,4.9349,m,Pm,6,monoclinic,-185.3224,-3.3412,-0.0123,intercalated ion,3.5455,True,0.0,,-0.0123,-0.0036
102865,Br6C2Gd3Pr3,44998a65e2,Pr3Gd3(CBr3)2,"['C', 'Br', 'Pr', 'Gd']",14,383.8014,6.0482,m,Pm,6,monoclinic,-106.5104,-1.5431,-0.0166,3D,,True,0.0,,-0.0166,-0.0008
102907,Ba6Ho1O15Pd4,44a1f58489,Ba6HoPd4O15,"['O', 'Pd', 'Ba', 'Ho']",26,424.1727,6.4772,1,P1,1,triclinic,-169.1529,-2.2353,-0.0744,intercalated ion,0.4492,True,0.0,,-0.0744,-0.0028
102912,Cl23Cu1,44a2698e1b,CuCl23,"['Cl', 'Cu']",24,1087.4238,1.3422,1,P1,1,triclinic,-60.2628,-0.5686,-0.454,0D,,True,0.0,,-0.454,-0.4357
102996,F28Ho4Tc1Zr3,44b0ecfe0e,Ho4Zr3TcF28,"['F', 'Zr', 'Tc', 'Ho']",36,552.9231,4.695,1,P1,1,triclinic,-252.6099,-4.021,-0.027,3D,1.7945,False,0.0,,-0.027,-0.0251
102999,Ac12Br12Ir1Os3,44b1fcfefc,Ac12Ir(OsBr4)3,"['Br', 'Os', 'Ir', 'Ac']",28,1041.7175,7.0867,32,R32,155,trigonal,-154.7316,-1.5398,-0.1139,3D,0.006,False,0.0,,-0.1139,-0.0817
103038,Br18Na4Th3Tl2,44b865a31a,Na4Th3(TlBr9)2,"['Na', 'Br', 'Tl', 'Th']",27,1092.2295,4.0062,m,Cm,8,monoclinic,-113.8745,-1.931,-0.0077,intercalated ion,,True,0.0,,-0.0077,-0.0076
103050,Br12Nb1Rb2Ta1,44b9b38022,Rb2TaNbBr12,"['Br', 'Rb', 'Nb', 'Ta']",16,659.7958,3.5326,m,Pm,6,monoclinic,-68.328,-1.5478,-0.0251,intercalated ion,1.4607,True,0.0,,-0.0251,-0.0144
103056,Ce6F30Tb1Y1,44bb24d029,TbCe6YF30,"['F', 'Y', 'Ce', 'Tb']",38,603.5428,4.563,2,C2,5,monoclinic,-261.7271,-4.1496,-0.0077,3D,2.2143,True,0.0,,-0.0077,-0.0077
103089,Br2C2Sm2Tm2,44c1a752b6,SmTmCBr,"['C', 'Br', 'Sm', 'Tm']",8,169.2823,8.0673,6mm,P6_3mc,186,hexagonal,-48.6937,-1.0722,-0.1208,3D,0.0086,True,0.0,,-0.1208,-0.0106
103117,Ho4Lu2O24Tb2W4,44c5ea7d32,TbHo2Lu(WO6)2,"['O', 'Tb', 'Ho', 'Lu', 'W']",36,455.7343,8.9155,m,Pc,7,monoclinic,-327.0963,-3.3298,-0.0056,3D,3.6298,True,0.0,,-0.0056,-0.0053
103139,Br20Ce1Cs8Pr3,44c8db4f4a,Cs8CePr3Br20,"['Br', 'Cs', 'Ce', 'Pr']",32,1293.7384,4.1383,m,Pm,6,monoclinic,-131.5348,-2.2299,-0.0538,intercalated ion,0.23,True,0.0,,-0.0538,-0.0472
103157,Lu1O24Tm7W4,44ccdd0c47,Tm7Lu(WO6)4,"['O', 'Tm', 'Lu', 'W']",36,445.3592,9.235,1,P1,1,triclinic,-326.8384,-3.3445,-0.0009,3D,3.6336,False,0.0,,-0.0009,-0.0006
103180,Br8Rb1Tl3Zn2,44ce468c3b,RbTl3(ZnBr4)2,"['Zn', 'Br', 'Rb', 'Tl']",14,515.1342,4.7343,m,Pm,6,monoclinic,-42.6005,-1.3514,-0.0139,intercalated ion,,False,0.0,,-0.0139,-0.0114
103230,Ba3Ho1O9Re1Sc1,44d70731a6,Ba3HoScReO9,"['O', 'Sc', 'Ba', 'Ho', 'Re']",15,226.323,6.9854,3m,P3m1,156,trigonal,-122.0379,-3.226,-0.0303,intercalated ion,0.0038,True,0.0,,-0.0303,-0.0277
103234,Ba2Ce1F10Ho1,44d72ad4a4,Ba2CeHoF10,"['F', 'Ba', 'Ce', 'Ho']",14,226.6792,5.6383,2,C2,5,monoclinic,-94.0084,-4.3243,-0.033,intercalated ion,0.0041,True,0.0,,-0.033,-0.0117
103235,As4Ba1F24Sr1,44d75c6b2b,BaSrAs4F24,"['F', 'As', 'Sr', 'Ba']",30,530.9783,3.0666,-4,I-4,82,tetragonal,-153.7142,-2.8531,-0.0769,intercalated ion,,True,0.0,,-0.0769,-0.075
103273,As4Ca1F24Pd1,44e071283d,CaAs4PdF24,"['F', 'Ca', 'As', 'Pd']",30,487.7835,3.0711,-4,I-4,82,tetragonal,-146.8972,-2.5067,-0.0102,intercalated ion,0.8223,True,0.0,,-0.0102,-0.0088
103277,F28Hf3Pt1Y4,44e0cda645,Y4Hf3PtF28,"['F', 'Y', 'Hf', 'Pt']",36,551.1667,4.8751,1,P1,1,triclinic,-257.9137,-3.9607,-0.0041,3D,2.6433,False,0.0,,-0.0041,-0.0021
103287,La1O12Pr5Te1,44e2ecd025,LaPr5TeO12,"['O', 'Te', 'La', 'Pr']",19,304.8802,6.3345,1,P1,1,triclinic,-155.8734,-3.3955,-0.0227,3D,2.5105,True,-0.0,,-0.0227,-0.0227
103320,Bi6Ir2O18Rh1,44e802440a,Bi6Ir2RhO18,"['O', 'Rh', 'Ir', 'Bi']",27,389.5361,8.6502,3,P3,143,trigonal,-176.9686,-1.4639,-0.0693,3D,0.0007,False,0.0,,-0.0693,-0.0571
103323,La1O24Pr3Se6,44e84549f8,LaPr3(SeO4)6,"['O', 'Se', 'La', 'Pr']",34,748.0826,3.1506,3,R3,146,trigonal,-229.0114,-2.059,-0.1622,3D,4.0246,True,0.0,,-0.1622,-0.1568
103367,Ac8Ir2O24Ta2,44eeeec4cd,Ac4TaIrO12,"['O', 'Ta', 'Ir', 'Ac']",36,570.746,8.5721,2,P2_1,4,monoclinic,-305.9238,-3.1336,-0.1897,3D,,True,0.0,,-0.1897,-0.173
103375,Ga3Ge4O20V5,44f014ec5d,V5Ga3(GeO5)4,"['O', 'V', 'Ga', 'Ge']",32,419.9695,4.2482,m,Pm,6,monoclinic,-245.7582,-2.3063,-0.0026,3D,1.5881,True,0.0,,-0.0026,-0.0013
103407,Br6O18Tl2,44f587616c,Tl(BrO3)3,"['O', 'Br', 'Tl']",26,476.7231,4.0969,6,P6_3,173,hexagonal,-114.8348,-0.4318,-0.1044,,,,0.0,,-0.1044,-0.1012
103441,Ho5O24Tm3W4,44fb58ef4d,Ho5Tm3(WO6)4,"['O', 'Ho', 'Tm', 'W']",36,453.1043,8.9817,1,P1,1,triclinic,-326.8744,-3.332,-0.0025,3D,3.6512,True,0.0,,-0.0025,-0.0021
103491,Au4Bi1Cl24Sm3,450688cb9b,Sm3Bi(AuCl6)4,"['Cl', 'Sm', 'Au', 'Bi']",32,994.3499,3.8389,1,P1,1,triclinic,-126.5036,-1.5937,-0.0493,3D,,True,0.0,,-0.0493,-0.0289
103529,Cl8Pb2S32,450cc8e050,Pb(S4Cl)4,"['S', 'Cl', 'Pb']",42,1557.2135,1.8385,mm2,Fdd2,43,orthorhombic,-181.8003,-0.6481,-0.3348,0D,,True,-0.0,,-0.3348,-0.3348
103556,Gd1La7Np4O24,4511c23127,La7GdNp4O24,"['O', 'La', 'Gd', 'Np']",36,545.2769,7.4963,1,P1,1,triclinic,-353.6721,-3.7356,-0.2407,3D,,True,0.0,,-0.2407,-0.2041
103573,F28Ho3Lu1Zr4,4514e6115a,Ho3LuZr4F28,"['F', 'Zr', 'Ho', 'Lu']",36,559.046,4.6533,1,P1,1,triclinic,-258.607,-4.2396,-0.0062,3D,6.0088,True,0.0,,-0.0062,-0.0037
103588,Hg1O18P6Re1,45172bad9f,ReHg(PO3)6,"['O', 'P', 'Re', 'Hg']",26,411.3428,3.4742,32,P312,149,trigonal,-194.7099,-2.3238,-0.0033,3D,1.5854,True,0.0,,-0.0033,-0.0005
103612,Br6Ti1V1,451b38588c,TiVBr6,"['Ti', 'V', 'Br']",8,344.4815,2.7873,1,P1,1,triclinic,-38.8613,-1.5075,-0.0167,1D,0.2099,True,0.0,,-0.0167,-0.0167
103646,Cl6Eu1Gd1Na1,45214a9686,NaEuGdCl6,"['Na', 'Cl', 'Eu', 'Gd']",9,303.377,2.9826,3,R3,146,trigonal,-60.3854,-2.6199,-0.0162,intercalated ion,,True,-0.0,,-0.0162,-0.0027
103647,Ac1F3S24,45214df8ba,Ac(S8F)3,"['F', 'S', 'Ac']",28,817.1074,2.1411,3m,R3m,160,trigonal,-136.843,-0.9897,-0.359,0D,,True,0.0,,-0.359,-0.3418
103682,Bi2Cs2O14Zn8,4526dff70a,CsZn4BiO7,"['O', 'Zn', 'Cs', 'Bi']",26,370.9095,6.4067,6mm,P6_3mc,186,hexagonal,-133.1596,-1.7015,-0.0589,intercalated ion,,True,0.0,,-0.0589,-0.0034
103724,Al9Br36Ho3,452e746e31,Ho(AlBr4)3,"['Al', 'Br', 'Ho']",48,2005.7067,2.9922,32,P3_112,151,trigonal,-188.9875,-1.7208,-0.0214,1D,,True,0.0,,-0.0214,-0.0037
103744,Au1Bi1Ca1F12,45325d93b6,CaBiAuF12,"['F', 'Ca', 'Au', 'Bi']",15,259.4143,4.3144,1,P1,1,triclinic,-65.389,-2.2188,-0.0455,intercalated ion,,True,0.0,,-0.0455,-0.0426
103861,Ag4O52P16Ta2W2,454606385f,TaAg2P8WO26,"['O', 'P', 'Ag', 'Ta', 'W']",76,1093.1716,3.7802,2,P2_1,4,monoclinic,-592.4508,-2.4682,-0.0071,3D,,True,0.0,,-0.0071,-0.0061
103885,Na4O6Pt1Tm1,454979242d,Na4TmPtO6,"['O', 'Na', 'Tm', 'Pt']",12,151.6402,6.0444,2,C2,5,monoclinic,-70.2937,-2.0641,-0.0214,intercalated ion,0.0027,True,0.0,,-0.0214,-0.0209
103898,Lu3O18Pr1Te3Tl2,454c3e60b2,PrLu3Tl2(TeO6)3,"['O', 'Te', 'Pr', 'Lu', 'Tl']",27,376.938,7.6889,1,P1,1,triclinic,-187.7432,-2.4512,-0.0006,3D,,True,0.0,,-0.0006,-0.0002
104040,Br2In6La6Lu1Tb3,456291f271,La6Tb3Lu(In3Br)2,"['Br', 'In', 'La', 'Tb', 'Lu']",18,546.2732,7.0945,32,P312,149,trigonal,-80.97,-0.7303,-0.0171,3D,0.0049,True,0.0,,-0.0171,-0.0156
104048,Br2Ge1Pr2Pt1,4564889d40,Pr2GePtBr2,"['Ge', 'Br', 'Pr', 'Pt']",6,184.2501,6.3929,3m,P3m1,156,trigonal,-33.3614,-1.6386,-0.0422,2D,0.0046,True,-0.0,,-0.0422,-0.0298
104055,As1Cl18Ir3Rb6,45665317a5,Rb6As(IrCl6)3,"['Cl', 'As', 'Rb', 'Ir']",28,829.7011,3.6075,3m,P3m1,156,trigonal,-114.5567,-1.5795,-0.0382,intercalated ion,,True,0.0,,-0.0382,-0.0
104070,F36Sb1Th1,456983ceb3,ThSbF36,"['F', 'Sb', 'Th']",38,725.9415,2.3738,1,P1,1,triclinic,-127.8108,-1.2488,-0.2369,0D,,True,-0.0,,-0.2369,-0.2361
104078,Au1Br12La12Rh3,456adea3b1,La12Rh3AuBr12,"['Br', 'Rh', 'La', 'Au']",28,939.1844,5.5365,32,R32,155,trigonal,-151.4936,-1.6876,-0.0416,3D,0.0021,True,0.0,,-0.0416,-0.0411
104083,Cu2Ir2O12Ru2,456b9e2b38,CuIrRuO6,"['O', 'Cu', 'Ru', 'Ir']",18,191.7068,7.8447,4mm,P4_2nm,102,tetragonal,-126.0191,-1.2344,-0.0327,3D,,True,0.0,,-0.0327,-0.0325
104107,O13Pb4Sc1Ta3,456fba17c2,ScTa3Pb4O13,"['O', 'Sc', 'Ta', 'Pb']",21,306.3837,8.805,3m,R3m,160,trigonal,-179.4779,-2.7809,-0.0257,3D,1.6051,False,0.0,,-0.0257,-0.0257
104134,O2Si6Tb5Y5,45737286ce,Tb5Y5(Si3O)2,"['O', 'Si', 'Y', 'Tb']",18,385.352,6.2037,mm2,Amm2,38,orthorhombic,-122.0626,-1.3395,-0.0232,3D,0.0023,True,0.0,,-0.0232,-0.0224
104177,Bi6O18Rh2Sb1,457a5a7132,Bi6Sb(RhO9)2,"['O', 'Rh', 'Sb', 'Bi']",27,388.0335,8.0,3,P3,143,trigonal,-172.3609,-1.5222,-0.0305,3D,0.0017,True,0.0,,-0.0305,-0.0305
104192,H4Na3O7,457d58ec20,Na3H4O7,"['H', 'O', 'Na']",14,163.7491,1.876,1,P1,1,triclinic,-70.4233,-1.3035,-0.1528,intercalated ion,0.6145,True,0.0,,-0.1528,-0.1516
104216,La5O12U2,4580ac4eae,La5U2O12,"['O', 'La', 'U']",19,312.6161,7.2377,1,P1,1,triclinic,-180.9181,-3.9095,-0.0311,3D,0.1651,True,0.0,,-0.0311,-0.0311
104222,Br4Ca6O16P4Sr2,458145a19e,SrCa3P2(BrO4)2,"['O', 'P', 'Ca', 'Br', 'Sr']",32,515.108,3.5951,mm2,Pma2,28,orthorhombic,-224.3654,-3.1745,-0.0018,intercalated ion,4.4751,True,-0.0,,-0.0018,-0.0018
104254,Cu3Mg1O6Sb1Zn1,4586e2f445,MgZnCu3SbO6,"['O', 'Mg', 'Cu', 'Zn', 'Sb']",12,148.4161,5.573,2,C2,5,monoclinic,-68.6833,-1.6424,-0.0098,3D,0.6401,True,0.0,,-0.0098,-0.0098
104281,Br12Ga1Si3Sm12,458b8034aa,Sm12Ga(SiBr4)3,"['Si', 'Ga', 'Br', 'Sm']",28,840.9053,5.7605,32,R32,155,trigonal,-140.5274,-1.6056,-0.0825,3D,0.0091,True,0.0,,-0.0825,-0.0625
104292,Br2Pb6Sm7Tb3,458cb3b9cb,Tb3Sm7(Pb3Br)2,"['Br', 'Sm', 'Tb', 'Pb']",18,524.351,9.2862,32,P312,149,trigonal,-87.2196,-0.8187,-0.0098,3D,,True,0.0,,-0.0098,-0.0064
104328,F24Ir2Np1U1,45923edd22,NpUIr2F24,"['F', 'Ir', 'U', 'Np']",28,495.313,4.41,m,Pm,6,monoclinic,-163.5728,-2.7065,-0.0036,0D,0.6928,True,0.0,,-0.0036,-0.0014
104330,Br9H3P2,45929502bf,P2(HBr3)3,"['H', 'P', 'Br']",14,728.0127,1.7885,1,P1,1,triclinic,-45.5102,-0.6981,-0.0249,0D,,True,-0.0,,-0.0249,-0.0249
104345,Ga6La2O14Sr2,4595265e9b,SrLaGa3O7,"['O', 'Ga', 'Sr', 'La']",24,355.8624,5.1113,mm2,Cmm2,35,orthorhombic,-169.3415,-2.8604,-0.0148,intercalated ion,3.2977,True,0.0,,-0.0148,0.0
104364,F1La2O18Pt6Sr2,45987071e1,Sr2La2Pt6O18F,"['O', 'F', 'Sr', 'La', 'Pt']",29,394.3161,8.1299,2,C2,5,monoclinic,-196.7044,-1.9329,-0.0782,intercalated ion,0.0062,True,-0.0,,-0.0782,-0.0652
104404,Cl12Pr12Pt2Ru2,45a03255e5,Pr6RuPtCl6,"['Cl', 'Ru', 'Pr', 'Pt']",28,853.9753,5.2669,222,F222,22,orthorhombic,-161.0876,-1.8159,-0.0257,3D,0.0072,True,-0.0,,-0.0257,-0.0216
104413,F31Sb1,45a1b2e0e1,SbF31,"['F', 'Sb']",32,620.0289,1.9034,m,Cm,8,monoclinic,-86.6451,-0.7269,-0.2282,intercalated ion,,True,0.0,,-0.2282,-0.2273
104472,O13Pb3U4,45ab0128f1,U4Pb3O13,"['O', 'Pb', 'U']",20,363.1834,8.1463,3m,R3m,160,trigonal,-182.5203,-3.0947,-0.0069,intercalated molecule,0.3531,True,-0.0,,-0.0069,-0.0043
104493,F28Hf1Y4Zr3,45aec474af,Y4HfZr3F28,"['F', 'Y', 'Zr', 'Hf']",36,569.0457,3.9095,1,P1,1,triclinic,-267.8186,-4.2453,-0.005,3D,6.0399,True,0.0,,-0.005,-0.0042
104510,Bi4La1O22Ta4Tb3,45b1ad8bff,LaTb3Ta4(Bi2O11)2,"['O', 'La', 'Tb', 'Ta', 'Bi']",34,491.2354,8.5434,1,P1,1,triclinic,-296.8872,-3.1236,-0.0083,3D,3.2672,True,0.0,,-0.0083,-0.0083
104573,F28Tb1V4Y3,45bdd1a55f,TbY3V4F28,"['F', 'V', 'Y', 'Tb']",36,516.3696,3.7347,1,P1,1,triclinic,-246.3389,-3.6791,-0.0359,3D,2.0135,True,0.0,,-0.0359,-0.0357
104659,Ba8Ir3Np1O20,45c993f073,Ba8NpIr3O20,"['O', 'Ba', 'Ir', 'Np']",32,511.3426,7.249,m,Pm,6,monoclinic,-234.6106,-2.5261,-0.1193,intercalated ion,,True,0.0,,-0.1193,-0.0752
104663,F24Pu5W1,45ca5cd95e,Pu5WF24,"['F', 'W', 'Pu']",30,449.2597,6.8741,1,P1,1,triclinic,-239.3201,-3.6382,-0.0206,3D,0.0033,True,0.0,,-0.0206,-0.0194
104681,Br8Pa1U1,45cdbc60b4,UPaBr8,"['Br', 'Pa', 'U']",10,387.8045,4.7456,m,Cm,8,monoclinic,-52.2494,-1.8348,-0.0206,2D,0.0011,False,0.0,,-0.0206,-0.0035
104704,K4O18Si6Tc2,45d1a5bcc9,K2Si3TcO9,"['O', 'Si', 'K', 'Tc']",30,456.6722,2.9413,3,R3,146,trigonal,-230.3482,-2.7857,-0.0033,intercalated ion,1.5184,True,0.0,,-0.0033,-0.0033
104714,As2La2O2Rh1Ru1,45d39332b0,La2As2RuRhO2,"['O', 'As', 'Ru', 'Rh', 'La']",8,147.4523,7.4735,-42m,P-4m2,115,tetragonal,-63.0423,-2.1647,-0.1135,3D,0.0501,True,0.0,,-0.1135,-0.029
104748,Br17Cs2Os2Pr10,45dac815c1,Cs2Pr10Os2Br17,"['Br', 'Cs', 'Pr', 'Os']",31,1175.1895,4.8236,m,Cm,8,monoclinic,-157.8471,-1.8698,-0.03,intercalated ion,inf,True,0.0,,-0.03,-0.03
104824,K1O6Ru1Te1,45e72c7392,KTeRuO6,"['O', 'K', 'Ru', 'Te']",9,148.6685,4.063,32,P312,149,trigonal,-57.6497,-1.6038,-0.025,intercalated ion,0.0129,True,0.0,,-0.025,-0.0238
104830,Ca9Ge12O48Pb3V8,45e77b141f,Ca9V8Ge12(PbO16)3,"['O', 'Ca', 'V', 'Ge', 'Pb']",80,1006.0192,5.0005,2,C2,5,monoclinic,-598.9069,-2.5509,-0.008,intercalated ion,,True,0.0,,-0.008,-0.0072
104844,Cs1Hf3O8V1,45e959bd42,CsHf3VO8,"['O', 'V', 'Cs', 'Hf']",13,185.8118,7.5722,m,Cm,8,monoclinic,-124.5023,-3.4667,-0.0071,inf,,True,0.0,,-0.0071,-0.0008
104845,Cl12Pd2Pt4,45e98bae1a,Pd(PtCl3)2,"['Cl', 'Pd', 'Pt']",18,519.4987,4.5345,m,Cm,8,monoclinic,-71.6295,-0.8224,-0.0047,0D,1.3459,True,0.0,,-0.0047,-0.0038
104857,Bi1Br3S24,45eb24471a,Bi(S8Br)3,"['S', 'Br', 'Bi']",28,980.2578,2.0637,3m,R3m,160,trigonal,-124.3657,-0.5818,-0.4142,0D,2.5685,True,0.0,,-0.4142,-0.4142
104859,C6Ho3O18Tm1,45eba30ebb,Ho3Tm(CO3)6,"['C', 'O', 'Ho', 'Tm']",28,501.2505,3.3916,3,P3,143,trigonal,-237.7073,-2.6807,-0.0963,3D,,True,0.0,,-0.0963,-0.0963
104911,Ag12As2Cl2S10,45f4c3445b,Ag6AsS5Cl,"['S', 'Cl', 'As', 'Ag']",26,599.7785,5.0826,m,Cc,9,monoclinic,-98.2395,-0.3796,-0.0108,3D,0.3509,True,0.0,,-0.0108,-0.003
104941,Ce1F10,45fab6f4db,CeF10,"['F', 'Ce']",11,229.422,2.3892,1,P1,1,triclinic,-47.7659,-2.0653,-0.2197,intercalated molecule,2.1538,False,0.0,,-0.2197,-0.2197
104967,Br12C2Cs2La5Y1,45fe9898d1,Cs2La5Y(CBr6)2,"['C', 'Br', 'Y', 'Cs', 'La']",22,771.054,4.3764,1,P1,1,triclinic,-115.3675,-2.0152,-0.0294,intercalated ion,0.5137,True,0.0,,-0.0294,-0.0272
105033,F3Gd1S24,460a09c553,Gd(S8F)3,"['F', 'S', 'Gd']",28,939.7996,1.7383,3m,R3m,160,trigonal,-145.6732,-0.9496,-0.362,0D,,True,-0.0,,-0.362,-0.3217
105110,Gd6O14Tc2,4616d0abf2,Gd3TcO7,"['O', 'Tc', 'Gd']",22,304.4384,7.4371,222,C222_1,20,orthorhombic,-246.66,-3.2823,-0.0379,3D,0.0003,False,0.0,,-0.0379,-0.0285
105151,Cl3S24Tm1,461c2e27f5,Tm(S8Cl)3,"['S', 'Cl', 'Tm']",28,797.7043,2.175,3m,R3m,160,trigonal,-130.7208,-0.7652,-0.3786,0D,,True,0.0,,-0.3786,-0.3723
105237,Cl2Ga1I4Pa1,462c8b64d0,PaGa(I2Cl)2,"['Cl', 'Ga', 'I', 'Pa']",8,378.9657,3.8528,1,P1,1,triclinic,-33.8452,-1.4387,-0.0858,intercalated ion,1.3262,True,0.0,,-0.0858,-0.0824
105253,As2La4O4P1,462faa3e09,La4As2PO4,"['O', 'P', 'As', 'La']",11,234.9577,5.657,mm2,Amm2,38,orthorhombic,-84.9953,-2.7934,-0.0256,3D,0.1071,True,0.0,,-0.0256,-0.0247
105273,F12Na2Tl2Zn2,4632173798,NaTlZnF6,"['F', 'Na', 'Zn', 'Tl']",18,268.5197,5.031,4mm,P4_2nm,102,tetragonal,-77.951,-2.5065,-0.035,intercalated ion,,True,0.0,,-0.035,-0.0245
105297,O24Sn1Tl15,46365fca0a,Tl15SnO24,"['O', 'Sn', 'Tl']",40,619.4966,9.5651,2,C2,5,monoclinic,-205.6797,-1.1874,-0.0117,3D,,False,0.0,,-0.0117,-0.0117
105373,Br18Cs6Mo2Ru2,4643196b51,Cs3MoRuBr9,"['Br', 'Mo', 'Ru', 'Cs']",28,1026.1381,4.2555,6mm,P6_3mc,186,hexagonal,-114.9441,-1.4238,-0.0155,intercalated ion,0.7507,True,0.0,,-0.0155,-0.0076
105404,La3O20Sr1Ti8,46476cc340,SrLa3Ti8O20,"['O', 'Ti', 'Sr', 'La']",32,411.8921,4.8671,m,Pm,6,monoclinic,-294.7424,-3.6288,-0.0165,intercalated ion,0.0004,True,0.0,,-0.0165,-0.0152
105436,Ho7O24W4Y1,464bcd6384,YHo7(WO6)4,"['O', 'Y', 'Ho', 'W']",36,458.7823,8.5519,2,P2,3,monoclinic,-328.5963,-3.3186,-0.0014,3D,3.6553,True,0.0,,-0.0014,-0.001
105518,Ac12Br12Ga1Os3,465b90764d,Ac12Ga(OsBr4)3,"['Ga', 'Br', 'Os', 'Ac']",28,1062.968,6.7537,32,R32,155,trigonal,-147.9962,-1.5067,-0.0555,3D,0.0005,True,0.0,,-0.0555,-0.0501
105582,Cl1F6N5,4667b838cc,N5ClF6,"['N', 'F', 'Cl']",12,266.7819,1.3661,1,P1,1,triclinic,-62.5045,-0.6254,-0.1005,0D,2.7639,True,-0.0,,-0.1005,-0.0355
105590,Ho3O24Sm2W4Y3,4669254c22,Sm2Y3Ho3(WO6)4,"['O', 'Y', 'Sm', 'Ho', 'W']",36,469.0674,7.723,1,P1,1,triclinic,-331.8499,-3.2967,-0.0019,3D,3.6491,False,0.0,,-0.0019,-0.0017
105631,As4Cl26Pa2,46719eb1d9,PaAs2Cl13,"['Cl', 'As', 'Pa']",32,1147.7639,2.4357,mm2,Cmc2_1,36,orthorhombic,-135.4685,-1.5544,-0.0239,0D,1.1992,False,0.0,,-0.0239,-0.0134
105633,La1O24Sm3V4W4,4671b3e0ba,LaSm3V4(WO6)4,"['O', 'V', 'La', 'Sm', 'W']",36,453.9532,6.998,1,P1,1,triclinic,-328.8369,-2.8563,-0.0052,3D,,True,0.0,,-0.0052,-0.0006
105648,Al4Cl16Ge2,46749677a3,Al2GeCl8,"['Al', 'Cl', 'Ge']",22,690.9176,1.9719,m,Pc,7,monoclinic,-92.6443,-1.7654,-0.013,intercalated ion,4.1466,True,-0.0,,-0.0177,-0.0169
105650,Ac1Ce1F14Re2,4674bf2705,AcCeRe2F14,"['F', 'Ce', 'Re', 'Ac']",18,299.9258,5.567,1,P1,1,triclinic,-121.4842,-3.3211,-0.0877,3D,,True,0.0,,-0.0877,-0.057
105784,Na1O16Te6Y1,468e3ae3ff,NaY(Te3O8)2,"['O', 'Na', 'Y', 'Te']",24,335.8012,5.6051,2,C2,5,monoclinic,-149.6727,-1.8272,-0.0164,intercalated ion,1.9678,True,0.0,,-0.0164,-0.0164
105815,Ag6F18Ge2Pt1,4692bdc56b,Ag6Ge2PtF18,"['F', 'Ge', 'Ag', 'Pt']",27,429.5074,5.1402,3,P3,143,trigonal,-118.9417,-1.9419,-0.0807,3D,,True,0.0,,-0.0807,-0.0804
105837,As1O7Pb2V1,469693bf94,VAsPb2O7,"['O', 'V', 'As', 'Pb']",11,191.2152,5.6643,m,Cm,8,monoclinic,-77.1883,-1.944,-0.0032,3D,2.5508,True,-0.0,,-0.0032,-0.0032