Unnamed: 0,Composition,MaterialId,Reduced Formula,Elements,NSites,Volume,Density,Point Group,Space Group,Space Group Number,Crystal System,Corrected Energy,Formation Energy Per Atom,Decomposition Energy Per Atom,Dimensionality Cheon,Bandgap,Is Train,Decomposition Energy Per Atom All,Decomposition Energy Per Atom Relative,Decomposition Energy Per Atom MP,Decomposition Energy Per Atom MP OQMD
45864,F9K1Pd2,1ea26cb800,KPd2F9,"['F', 'K', 'Pd']",12,196.5032,3.5739,32,P321,150,trigonal,-50.9526,-1.8566,-0.0242,intercalated ion,1.5562,True,-0.0,,-0.0242,-0.0229
45945,Cl4In1O1Pa1,1eb0c65b9e,PaInCl4O,"['O', 'Cl', 'In', 'Pa']",7,220.6812,3.7899,2,C2,5,monoclinic,-41.4215,-2.4019,-0.0662,intercalated ion,2.1074,True,0.0,,-0.0662,-0.0661
45979,Ba4Ho1O12Re1W1,1eb6385ca9,Ba4HoReWO12,"['O', 'Ba', 'Ho', 'W', 'Re']",19,289.6553,7.3167,3m,R3m,160,trigonal,-154.0005,-2.9981,-0.0369,intercalated ion,,True,-0.0,,-0.0369,-0.0349
46016,Br6La5Os2Pr1,1ebc3cb2c4,La5Pr(OsBr3)2,"['Br', 'La', 'Pr', 'Os']",14,483.5335,5.822,m,Pm,6,monoclinic,-83.5313,-1.5567,-0.11,3D,0.0046,True,0.0,,-0.11,-0.1073
46047,Al1Cl5Ge1,1ec0d879a6,AlGeCl5,"['Al', 'Cl', 'Ge']",7,248.2805,1.8519,1,P1,1,triclinic,-29.1093,-1.6426,-0.012,0D,4.1865,True,0.0,,-0.0195,-0.0188
46050,Ca4K4O18Si6,1ec19ff9db,K2Ca2(SiO3)3,"['O', 'Si', 'K', 'Ca']",32,520.9092,2.4648,m,Pc,7,monoclinic,-235.6315,-3.1735,-0.0132,intercalated ion,4.1061,True,0.0,,-0.0132,-0.0119
46061,Gd2O12Ta1Tb4,1ec35da3cc,Tb4Gd2TaO12,"['O', 'Gd', 'Tb', 'Ta']",19,267.3096,8.2194,1,P1,1,triclinic,-190.0923,-3.7984,-0.01,3D,0.0042,True,0.0,,-0.01,-0.0093
46086,Cs1F13K4,1ec71017d1,CsK4F13,"['F', 'K', 'Cs']",18,390.0898,2.2828,-4,I-4,82,tetragonal,-64.6528,-1.9148,-0.1361,intercalated ion,,True,0.0,,-0.1361,-0.0239
46096,Bi1Ho3O16Os4,1ec87189f0,Ho3Bi(OsO4)4,"['O', 'Ho', 'Os', 'Bi']",24,306.1371,9.3333,1,P1,1,triclinic,-197.0014,-2.3036,-0.0475,3D,,True,0.0,,-0.0475,-0.0427
46099,Cs2O12Pb1W3,1ec8ecfe7d,Cs2Pb(WO4)3,"['O', 'Cs', 'W', 'Pb']",18,303.0747,6.6653,2,C2,5,monoclinic,-142.0557,-2.1279,-0.0625,intercalated ion,2.3121,True,-0.0,,-0.0625,-0.0625
46105,La5Np2O14Y1,1ec9725a71,La5YNp2O14,"['O', 'Y', 'La', 'Np']",22,349.4197,7.0401,m,Pm,6,monoclinic,-210.9149,-3.8455,-0.0952,3D,,True,0.0,,-0.0952,-0.0703
46123,Br18Cs6Lu3Sm1,1ecca70599,Cs6SmLu3Br18,"['Br', 'Cs', 'Sm', 'Lu']",28,1112.5554,4.3447,3,R3,146,trigonal,-115.8843,-2.2416,-0.084,intercalated ion,4.119,True,0.0,,-0.084,-0.0507
46131,Br5I7Pt4,1ecd3b82d4,Pt4I7Br5,"['Br', 'I', 'Pt']",16,544.6681,6.3053,1,P1,1,triclinic,-51.8277,-0.5432,-0.0173,2D,,False,0.0,,-0.0173,-0.0119
46142,Al1Ca8O16V3,1ecf105fd6,Ca8AlV3O16,"['O', 'Al', 'Ca', 'V']",28,420.1599,2.9895,m,Pm,6,monoclinic,-214.1378,-3.1403,-0.013,intercalated ion,1.1202,True,0.0,,-0.013,-0.0119
46206,Ag2O24P6Sn1V3,1ed85d6d15,V3Ag2Sn(PO4)6,"['O', 'P', 'V', 'Ag', 'Sn']",36,478.1644,3.671,1,P1,1,triclinic,-275.6315,-2.4298,-0.0185,3D,0.9592,False,0.0,,-0.0185,-0.0179
46208,Br12Cs3Pa1Rb1U1,1ed872bc0f,Cs3RbUPaBr12,"['Br', 'Rb', 'Cs', 'Pa', 'U']",18,753.8268,4.212,2,P2,3,monoclinic,-80.5324,-2.0231,-0.0647,intercalated ion,,True,0.0,,-0.0647,-0.0065
46250,Ce1F20Rb8Y3,1edf9a0857,Rb8CeY3F20,"['F', 'Rb', 'Y', 'Ce']",32,610.8377,3.9976,m,Pm,6,monoclinic,-190.2687,-3.7144,-0.0466,intercalated ion,0.2801,True,0.0,,-0.0466,-0.0069
46261,O12Te2Th2Zn2,1ee0fd2614,ThZnTeO6,"['O', 'Zn', 'Te', 'Th']",18,246.0786,7.032,222,P2_12_12,18,orthorhombic,-128.0451,-2.502,-0.0184,3D,2.501,True,0.0,,-0.0184,-0.0109
46281,Bi7La3O24Se3,1ee493f4d1,La3Bi7(SeO8)3,"['O', 'Se', 'La', 'Bi']",37,601.0134,6.9085,1,P1,1,triclinic,-246.483,-2.0326,-0.0535,3D,2.3981,True,0.0,,-0.0535,-0.0464
46303,C2Cl9I1Pr6,1ee73cfdc6,Pr6C2ICl9,"['C', 'Cl', 'I', 'Pr']",18,543.397,4.0198,1,P1,1,triclinic,-103.4676,-2.1204,-0.0296,3D,0.6362,True,0.0,,-0.0296,-0.0242
46319,Br2Ga2K12Te8,1ee94bc428,K6GaTe4Br,"['K', 'Ga', 'Br', 'Te']",24,920.274,3.2285,6mm,P6_3mc,186,hexagonal,-78.2441,-1.2685,-0.023,intercalated ion,1.9816,True,0.0,,-0.023,-0.0221
46497,Br2Rb12S8Tl2,1f06cb9f8c,Rb6TlS4Br,"['S', 'Br', 'Rb', 'Tl']",24,834.6685,3.6819,6mm,P6_3mc,186,hexagonal,-83.2431,-1.2662,-0.0416,intercalated ion,,True,0.0,,-0.0416,-0.0416
46569,Br10Hg8Se4Tm2,1f114145c3,TmHg4Se2Br5,"['Se', 'Br', 'Tm', 'Hg']",24,814.204,6.2356,2,P2_1,4,monoclinic,-69.4277,-1.1539,-0.0317,3D,2.0929,True,0.0,,-0.0317,-0.0044
46577,Bi1Cl6Y1,1f127b74e6,YBiCl6,"['Cl', 'Y', 'Bi']",8,295.4122,2.8702,2,C2,5,monoclinic,-38.2336,-2.0982,-0.0303,2D,4.173,True,0.0,,-0.0303,-0.0018
46621,Br12La4Na1Pr2Pt1,1f19f55abd,NaLa4Pr2PtBr12,"['Na', 'Br', 'La', 'Pr', 'Pt']",20,761.7811,4.3909,1,P1,1,triclinic,-98.4209,-2.1039,-0.0097,intercalated ion,,True,-0.0,,-0.0097,-0.0084
46632,Lu1Np4O19Pr5,1f1c3d04d3,Pr5LuNp4O19,"['O', 'Pr', 'Lu', 'Np']",29,417.8785,8.47,1,P1,1,triclinic,-282.0696,-3.7187,-0.0877,3D,,True,0.0,,-0.0877,-0.0104
46680,Br2In1La6Tb4Tl5,1f24765aca,La6Tb4Tl5InBr2,"['Br', 'In', 'La', 'Tb', 'Tl']",18,552.0418,8.3191,mm2,Amm2,38,orthorhombic,-78.5176,-0.6961,-0.0386,3D,0.0017,True,0.0,,-0.0386,-0.0338
46689,Eu1Ir2O12Sr6Tl1,1f26935270,Sr6EuTl(IrO6)2,"['O', 'Sr', 'Eu', 'Ir', 'Tl']",22,330.9452,7.3181,32,R32,155,trigonal,-155.4519,-2.5277,-0.032,intercalated ion,,True,-0.0,,-0.032,-0.0186
46777,Eu2O14Ta2Tm1Y3,1f351d685e,Eu2Y3TmTa2O14,"['O', 'Y', 'Eu', 'Tm', 'Ta']",22,301.3811,7.303,m,Pm,6,monoclinic,-219.0334,-3.7085,-0.0326,3D,0.0012,True,0.0,,-0.0326,-0.012
46794,Al12O48Tm4V8Y8,1f39060de0,Y2TmAl3V2O12,"['O', 'Al', 'V', 'Y', 'Tm']",80,929.4019,5.1568,2,C2,5,monoclinic,-702.3122,-3.4695,-0.0106,3D,,True,0.0,,-0.0106,-0.0102
46818,Br6Lu1O18Sc1,1f3bf2120f,LuSc(BrO3)6,"['O', 'Sc', 'Br', 'Lu']",26,454.2243,3.6095,3,P3,143,trigonal,-136.4564,-1.0276,-0.1344,3D,4.0601,False,0.0,,-0.1344,-0.1311
46846,In6O28P8Tl2,1f423e7cce,TlIn3(P2O7)2,"['O', 'P', 'In', 'Tl']",44,623.1809,4.7789,2,P2_1,4,monoclinic,-307.9641,-2.3837,-0.0053,intercalated ion,,True,0.0,,-0.0053,-0.0053
46853,Ce1F14La1Ru2,1f43300c45,LaCeRu2F14,"['F', 'Ru', 'La', 'Ce']",18,290.0254,4.2777,1,P1,1,triclinic,-112.6025,-3.1347,-0.0372,3D,0.0066,True,0.0,,-0.0372,-0.0351
46858,Bi3F28Sm1V4,1f44512ad6,SmV4Bi3F28,"['F', 'V', 'Sm', 'Bi']",36,545.642,4.6045,1,P1,1,triclinic,-218.4891,-3.1179,-0.0268,3D,2.0309,True,0.0,,-0.0268,-0.0266
46863,Bi1Br2In5Y10,1f45489628,Y10In5BiBr2,"['Br', 'Y', 'In', 'Bi']",18,498.1165,6.107,mm2,Amm2,38,orthorhombic,-99.5819,-0.7775,-0.027,3D,0.0014,True,0.0,,-0.027,-0.025
46911,F8Si1,1f4cfcb355,SiF8,"['F', 'Si']",9,156.3727,1.9122,-42m,I-4m2,119,tetragonal,-39.8019,-2.1205,-0.1903,0D,,False,0.0,,-0.1903,-0.1903
46916,Br7O1V4,1f4e155e6a,V4Br7O,"['O', 'V', 'Br']",12,330.5534,3.9138,m,Cm,8,monoclinic,-69.8648,-1.4269,-0.0365,2D,1.0106,True,0.0,,-0.0365,-0.0204
46918,O24P6Pd1Ta3,1f4e2d527f,Ta3P6PdO24,"['O', 'P', 'Pd', 'Ta']",34,494.0722,4.0973,1,P1,1,triclinic,-286.3348,-2.775,-0.0289,intercalated ion,0.3562,False,0.0,,-0.0289,-0.0287
46929,Al1Eu4F4Ga5O12,1f4fb3a7f7,Eu4AlGa5(O3F)4,"['O', 'F', 'Al', 'Ga', 'Eu']",26,393.8279,5.2766,-4,I-4,82,tetragonal,-207.0319,-3.0752,-0.0684,3D,1.7251,True,0.0,,-0.0684,-0.0664
46951,Al2F1K1Nb11O20Rb3,1f52bee393,KRb3Nb11Al2O20F,"['O', 'F', 'Al', 'K', 'Rb', 'Nb']",38,509.2798,5.5769,mm2,Imm2,44,orthorhombic,-327.7484,-2.7426,-0.0363,intercalated ion,,True,0.0,,-0.0363,-0.0344
46958,Br6La5Os2Sm1,1f54a04cec,La5Sm(OsBr3)2,"['Br', 'La', 'Sm', 'Os']",14,484.5512,5.8422,m,Pm,6,monoclinic,-83.4392,-1.5546,-0.0913,3D,0.0032,False,-0.0,,-0.0913,-0.0912
46959,Br4La5Os10Pr3,1f54bde5a5,La5Pr3(Os5Br2)2,"['Br', 'La', 'Pr', 'Os']",22,574.2414,9.6559,mm2,Amm2,38,orthorhombic,-173.5734,-0.715,-0.069,3D,0.0033,True,0.0,,-0.069,-0.0645
47002,Cs1Ga1O8Sn3,1f5bf69a3f,CsGaSn3O8,"['O', 'Ga', 'Sn', 'Cs']",13,183.2385,6.2235,m,Cm,8,monoclinic,-83.0309,-2.115,-0.0089,inf,1.6007,True,0.0,,-0.0089,-0.0089
47007,O24Rh1S6Tl3,1f5db25dc4,Tl3Rh(SO4)6,"['O', 'S', 'Rh', 'Tl']",34,515.3667,4.1643,3,R3,146,trigonal,-212.411,-1.5998,-0.058,3D,,True,0.0,,-0.058,-0.0576
47010,O12Rb2Sb1W3,1f5dc71ccb,Rb2Sb(WO4)3,"['O', 'Rb', 'Sb', 'W']",18,286.29,6.0102,2,C2,5,monoclinic,-144.2354,-2.2164,-0.0123,intercalated ion,2.0805,True,-0.0,,-0.0123,-0.0038
47020,La10Li12O48Pr2Te8,1f5ef73e63,Li6La5Pr(TeO6)4,"['Li', 'O', 'Te', 'La', 'Pr']",80,1057.6455,5.5625,2,C2,5,monoclinic,-564.679,-2.7525,-0.0394,intercalated ion,,True,0.0,,-0.0394,-0.0336
47047,O14Pr2Ta2Tb2Y2,1f642bb2cc,TbPrYTaO7,"['O', 'Y', 'Pr', 'Tb', 'Ta']",22,307.9063,7.3526,mm2,Ama2,40,orthorhombic,-208.9579,-3.8276,-0.0231,3D,3.5537,True,0.0,,-0.0231,-0.0204
47128,Br6La1Lu1O18,1f70f3276c,LaLu(BrO3)6,"['O', 'Br', 'La', 'Lu']",26,507.4113,3.5386,3,P3,143,trigonal,-135.5801,-1.0476,-0.1378,3D,,True,0.0,,-0.1378,-0.1216
47137,Lu5O2Si6Tm5,1f726d4da6,Tm5Lu5(Si3O)2,"['O', 'Si', 'Tm', 'Lu']",18,355.5573,8.9669,mm2,Amm2,38,orthorhombic,-111.8673,-1.3575,-0.0185,3D,0.0009,True,0.0,,-0.0185,-0.0175
47144,Ca1O18Sb1Sr7Ta3,1f735f670d,Sr7CaTa3SbO18,"['O', 'Ca', 'Sr', 'Sb', 'Ta']",30,470.7376,5.6652,3,P3,143,trigonal,-240.6868,-3.2696,-0.0071,intercalated ion,3.8543,True,-0.0,,-0.0071,-0.0032
47237,Al1Ga3O14Si2Sr4,1f83e3e6f0,Sr4AlGa3(SiO7)2,"['O', 'Al', 'Si', 'Ga', 'Sr']",24,346.5263,4.1536,1,P1,1,triclinic,-174.4561,-3.1144,-0.0153,intercalated ion,3.5756,True,0.0,,-0.0153,-0.0153
47259,Ba6O18Pd2Ti4,1f86996782,Ba3Ti2PdO9,"['O', 'Ti', 'Pd', 'Ba']",30,416.512,6.045,6mm,P6_3mc,186,hexagonal,-231.1328,-2.9538,-0.0537,intercalated ion,1.7468,True,0.0,,-0.0537,-0.0077
47270,Br1F6O4,1f88581c47,Br(O2F3)2,"['O', 'F', 'Br']",11,206.6692,2.0721,1,P1,1,triclinic,-42.5611,-0.8785,-0.0858,0D,,False,0.0,,-0.0858,-0.0776
47306,Ce4H7O3,1f8db6ddf0,Ce4H7O3,"['H', 'O', 'Ce']",14,167.3775,6.1065,2,C2,5,monoclinic,-86.6895,-1.7403,-0.0217,3D,0.0001,True,0.0,,-0.0217,-0.0013
47327,Br6H1K1,1f91e66d40,KHBr6,"['H', 'K', 'Br']",8,311.2274,2.7719,1,P1,1,triclinic,-21.9033,-0.9473,-0.3013,intercalated ion,,True,-0.0,,-0.3013,-0.0622
47390,Ir1O13Rh3Tl4,1f9beecb01,Tl4IrRh3O13,"['O', 'Rh', 'Ir', 'Tl']",21,276.6688,9.1617,3m,R3m,160,trigonal,-130.2623,-1.2172,-0.0594,3D,,True,0.0,,-0.0594,-0.0404
47408,Ba4O18Pt2Rh4,1fa002be08,Ba2PtRh2O9,"['O', 'Rh', 'Ba', 'Pt']",28,439.0479,6.1993,1,P1,1,triclinic,-187.0614,-1.7401,-0.0867,intercalated ion,,True,0.0,,-0.0867,-0.0599
47411,Ca3La1Mg2O12Ru2,1fa07d5d1b,Ca3LaMg2(RuO6)2,"['O', 'Mg', 'Ca', 'Ru', 'La']",20,240.78,4.8405,1,P1,1,triclinic,-145.6214,-2.6772,-0.0447,intercalated ion,0.0042,True,0.0,,-0.0447,-0.0305
47438,Bi9Cl4Sn3Te8,1fa481833d,Sn3Bi9(Te2Cl)4,"['Cl', 'Sn', 'Te', 'Bi']",24,907.1123,6.2232,m,Cm,8,monoclinic,-105.9991,-1.1008,-0.4687,2D,,True,0.0,,-0.4687,-0.4663
47493,Br1Ho11Pr8Sc1Si15,1fac08da1e,Pr8Ho11ScSi15Br,"['Si', 'Sc', 'Br', 'Pr', 'Ho']",36,871.5365,6.645,1,P1,1,triclinic,-206.172,-0.7825,-0.031,3D,,True,0.0,,-0.031,-0.0268
47556,Ce2F14Rh2,1fb8030b18,CeRhF7,"['F', 'Rh', 'Ce']",18,275.4781,4.5331,2,P2_1,4,monoclinic,-108.758,-3.0779,-0.0056,3D,,True,0.0,,-0.0056,-0.0056
47586,O19Os2Sr7Ti2,1fbd52d844,Sr7Ti2Os2O19,"['O', 'Ti', 'Sr', 'Os']",30,407.0061,5.6854,m,Cm,8,monoclinic,-227.7919,-2.7903,-0.0228,intercalated ion,0.5553,False,0.0,,-0.0228,-0.0136
47599,Br18Cs1Nb6Pr1,1fbf96dfff,CsPr(NbBr3)6,"['Br', 'Nb', 'Cs', 'Pr']",26,833.6232,4.5208,3,R3,146,trigonal,-135.3717,-1.524,-0.0303,intercalated ion,1.1045,True,0.0,,-0.0303,-0.0036
47624,Li12O48Sm1Tb11W8,1fc42c4a73,Li12Tb11Sm(WO6)8,"['Li', 'O', 'Sm', 'Tb', 'W']",80,950.8308,7.3708,222,F222,22,orthorhombic,-660.9144,-3.0143,-0.0187,intercalated ion,,True,0.0,,-0.0187,-0.0145
47636,Br6Pa1V1,1fc77a2516,PaVBr6,"['V', 'Br', 'Pa']",8,291.5734,4.3363,32,P312,149,trigonal,-41.7431,-1.6654,-0.0208,2D,0.5879,True,0.0,,-0.0208,-0.0205
47642,Br30Ta4U2,1fc8f32ade,UTa2Br15,"['Br', 'Ta', 'U']",36,1504.6675,3.9696,1,P1,1,triclinic,-172.8422,-1.4922,-0.0011,0D,0.6055,True,0.0,,-0.0011,-0.0011
47661,F20Hg6Na2Te4,1fcb945802,NaHg3Te2F10,"['F', 'Na', 'Te', 'Hg']",32,671.0067,5.2956,2,P2_1,4,monoclinic,-123.7469,-2.1399,-0.017,intercalated ion,0.1842,True,0.0,,-0.017,-0.0156
47714,Ba4Cd8Cs2K2O44V12,1fd6df6799,CsKBa2V6Cd4O22,"['O', 'K', 'V', 'Cd', 'Cs', 'Ba']",72,1169.6571,4.4122,m,Pc,7,monoclinic,-516.205,-2.3669,-0.0037,intercalated ion,,True,0.0,,-0.0037,-0.0034
47723,F28Pd2Pt2Tl3Tm1,1fd7e8973c,TmTl3Pd2Pt2F28,"['F', 'Pd', 'Tm', 'Pt', 'Tl']",36,507.3584,6.2743,1,P1,1,triclinic,-162.6476,-2.0851,-0.0743,3D,,True,0.0,,-0.0743,-0.0248
47746,F36Ru4Se4,1fdba2a87d,RuSeF9,"['F', 'Se', 'Ru']",44,704.4102,3.3099,3,R3,146,trigonal,-210.9864,-2.0703,-0.026,0D,,True,0.0,,-0.026,-0.0258
47770,Nb1O24P6Sn2Ta1,1fe1a60466,TaNbSn2(PO4)6,"['O', 'P', 'Nb', 'Sn', 'Ta']",34,501.7986,3.5776,1,P1,1,triclinic,-274.5529,-2.7454,-0.0149,3D,3.2162,True,0.0,,-0.0149,-0.0065
47779,B3C1Cl12Ho2Tb10,1fe39ea0db,Tb10Ho2B3CCl12,"['B', 'C', 'Cl', 'Tb', 'Ho']",28,644.595,6.1543,1,P1,1,triclinic,-156.9093,-1.7841,-0.0346,3D,,True,0.0,,-0.0346,-0.0042
47855,Ac4Br2Ga2Ir2,1fede6c6d6,Ac2GaIrBr,"['Ga', 'Br', 'Ir', 'Ac']",10,299.21,8.8335,6mm,P6_3mc,186,hexagonal,-55.3609,-1.1869,-0.3619,intercalated ion,,True,0.0,,-0.3619,-0.1697
47874,Ba1La1O9,1ff2333eb3,BaLaO9,"['O', 'Ba', 'La']",11,156.209,4.4671,3,R3,146,trigonal,-68.0559,-1.5154,-0.0362,intercalated ion,0.0027,False,0.0,,-0.0362,-0.0267
47912,Br2S1Sm1Tb1,1ff91e41e9,TbSmSBr2,"['S', 'Br', 'Sm', 'Tb']",5,151.6901,5.4861,3m,R3m,160,trigonal,-27.7271,-2.1928,-0.0624,2D,,True,0.0,,-0.0624,0.0
48039,O14P4Pb1Rh1,2010746cdf,P4RhPbO14,"['O', 'P', 'Rh', 'Pb']",20,278.851,3.9183,1,P1,1,triclinic,-145.7875,-2.1893,-0.0204,3D,0.0017,False,0.0,,-0.0204,-0.0195
48065,Nb2O4P12Sr12Ta2,2014345448,Sr6TaNb(P3O)2,"['O', 'P', 'Sr', 'Nb', 'Ta']",32,852.4843,3.9636,mm2,Pmc2_1,26,orthorhombic,-199.1016,-1.5674,-0.0355,intercalated ion,1.3714,True,0.0,,-0.0355,-0.0335
48104,O24Os7Ru1Zn4,201a6d72ca,Zn4Os7RuO24,"['O', 'Zn', 'Ru', 'Os']",36,399.9463,8.6289,2,C2,5,monoclinic,-266.3553,-1.5194,-0.015,3D,0.0037,True,0.0,,-0.015,-0.0086
48156,F38Nb6Tl10,2023cd51f1,Nb3Tl5F19,"['F', 'Nb', 'Tl']",54,998.1313,5.5287,4mm,I4cm,108,tetragonal,-315.4575,-2.937,-0.1129,intercalated ion,,True,0.0,,-0.1129,-0.0672
48276,B3Br12Ge1Sm12,20379a7685,Sm12Ge(BBr4)3,"['B', 'Ge', 'Br', 'Sm']",28,783.2605,6.0808,32,R32,155,trigonal,-143.668,-1.5264,-0.0606,3D,0.001,True,0.0,,-0.0606,-0.0582
48283,F30Ho1Tc2Y1Zr4,2037c7e175,YHoZr4Tc2F30,"['F', 'Y', 'Zr', 'Tc', 'Ho']",38,513.7653,4.4754,2,C2,5,monoclinic,-263.9929,-3.7023,-0.0319,3D,,True,0.0,,-0.0319,-0.0313
48325,Bi3F28La1Mo4,203d997135,LaBi3Mo4F28,"['F', 'Mo', 'La', 'Bi']",36,602.4222,4.6351,1,P1,1,triclinic,-220.239,-2.9647,-0.0453,3D,,True,0.0,,-0.0453,-0.045
48372,Gd2O24Tm3W4Y3,2044f61cdd,Gd2Y3Tm3(WO6)4,"['O', 'Y', 'Gd', 'Tm', 'W']",36,462.7924,7.9202,1,P1,1,triclinic,-350.6357,-3.3076,-0.0059,3D,3.3766,True,0.0,,-0.0059,-0.0043
48406,O56P14Sr18Tl2,204a6d5654,Sr9Tl(PO4)7,"['O', 'P', 'Sr', 'Tl']",90,1342.5001,4.101,m,Cc,9,monoclinic,-674.7828,-3.1864,-0.0192,intercalated ion,,True,0.0,,-0.0192,-0.0192
48424,K2O14Se4Ta2,204deacc38,KTaSe2O7,"['O', 'K', 'Se', 'Ta']",22,361.5477,4.5007,mm2,Cmc2_1,36,orthorhombic,-155.4282,-2.1017,-0.0374,intercalated ion,3.3556,True,0.0,,-0.0374,-0.0374
48438,Hf3O12Tb1Y3,20505fbb57,TbY3Hf3O12,"['O', 'Y', 'Tb', 'Hf']",19,255.8045,7.4853,1,P1,1,triclinic,-189.8078,-4.0277,-0.0314,3D,4.5609,True,0.0,,-0.0314,-0.029
48441,Cu4Eu1Li1O8,2050bd09ee,LiEu(CuO2)4,"['Li', 'O', 'Cu', 'Eu']",14,155.2808,5.7862,-4,I-4,82,tetragonal,-88.9892,-1.4863,-0.019,intercalated ion,0.0011,True,0.0,,-0.019,-0.0051
48456,F24Na4Pb4Sc4,205287265f,NaScPbF6,"['F', 'Na', 'Sc', 'Pb']",36,568.7064,4.5449,222,P2_12_12_1,19,orthorhombic,-216.4051,-3.4734,-0.0009,intercalated ion,,True,0.0,,-0.0009,-0.0006
48468,F24Na4Rb4Tc4,205435f4e5,RbNaTcF6,"['F', 'Na', 'Rb', 'Tc']",36,622.9427,3.4168,mm2,Pna2_1,33,orthorhombic,-198.2235,-2.8243,-0.1907,intercalated ion,,True,-0.0,,-0.1907,-0.1834
48484,Ho3O14Pr2Sm1Ta2,2057321781,Pr2SmHo3Ta2O14,"['O', 'Pr', 'Sm', 'Ho', 'Ta']",22,308.1321,8.1528,1,P1,1,triclinic,-205.2636,-3.8295,-0.0173,3D,3.5359,True,0.0,,-0.0173,-0.0134
48487,Hg1O18P6W1,2057a42687,HgP6WO18,"['O', 'P', 'W', 'Hg']",26,419.5766,3.3967,32,P312,149,trigonal,-197.057,-2.3943,-0.0045,3D,3.1494,True,0.0,,-0.0045,-0.0026
48492,Ho2O8Ti1W1,2057f375a3,Ho2TiWO8,"['O', 'Ti', 'Ho', 'W']",12,146.4649,7.8179,2,P2,3,monoclinic,-110.0364,-3.3695,-0.0029,3D,3.2282,True,0.0,,-0.0029,-0.0026
48585,Na2O14P4Rb6,2065c7d927,Rb3NaP2O7,"['O', 'Na', 'P', 'Rb']",26,432.7592,3.479,222,C222_1,20,orthorhombic,-166.9105,-2.5942,-0.0164,intercalated ion,,True,0.0,,-0.0164,-0.0043
48587,Br1Pr19Si15Tb1,2065e7aceb,TbPr19Si15Br,"['Si', 'Br', 'Pr', 'Tb']",36,967.5998,5.7274,1,P1,1,triclinic,-203.9479,-0.7072,-0.0167,3D,0.0015,True,0.0,,-0.0167,-0.0135
48593,Br25Ca1Tc11W1,206704dff3,CaTc11WBr25,"['Ca', 'Br', 'Tc', 'W']",38,1224.3854,4.4749,1,P1,1,triclinic,-203.7232,-0.8913,-0.0528,intercalated ion,0.9444,True,0.0,,-0.0528,-0.0512
48619,F20K8Tb3Y1,206a4ed86c,K8Tb3YF20,"['F', 'K', 'Y', 'Tb']",32,540.9339,3.8631,m,Pm,6,monoclinic,-187.9689,-3.7652,-0.0001,intercalated ion,6.8065,True,0.0,,-0.0001,0.0
48668,Al7Au1O4Ti12,20718876e9,Ti12Al7AuO4,"['O', 'Al', 'Ti', 'Au']",24,332.7292,5.1116,3,R3,146,trigonal,-175.5883,-1.3149,-0.0676,3D,0.0039,True,0.0,,-0.0676,-0.0533
48685,Ca9F2Sn6Tb1,20762c3b9d,Ca9TbSn6F2,"['F', 'Ca', 'Sn', 'Tb']",18,500.4525,4.2136,m,Cm,8,monoclinic,-73.4387,-1.2707,-0.0108,intercalated ion,0.0017,True,0.0,,-0.0108,-0.0107
48689,Ba1O56P4Tc15W1,2076d1b61e,BaTc15P4WO56,"['O', 'P', 'Tc', 'Ba', 'W']",77,1049.8724,4.4461,1,P1,1,triclinic,-629.1166,-2.0791,-0.0253,intercalated ion,,False,0.0,,-0.0253,-0.0252
48714,Ir3O24Tb7W1Y1,207bbcf3a3,Tb7YIr3WO24,"['O', 'Y', 'Tb', 'W', 'Ir']",36,486.0801,8.0139,1,P1,1,triclinic,-300.9106,-2.8828,-0.0679,3D,0.243,True,0.0,,-0.0679,-0.0434
48722,Br6In1Lu1O18,207c7a5e09,LuIn(BrO3)6,"['O', 'Br', 'In', 'Lu']",26,454.2244,3.8649,3,P3,143,trigonal,-127.7738,-0.8314,-0.1277,3D,,False,-0.0,,-0.1277,-0.1245
48749,F48Se12Ta8Te12,20801bbb5d,Ta2Te3(SeF4)3,"['F', 'Se', 'Te', 'Ta']",80,1831.348,4.387,222,P2_12_12_1,19,orthorhombic,-471.4267,-2.5643,-0.0387,0D,,True,0.0,,-0.0387,-0.0385
48785,Br2F12Nb1O4Ta1,2085fc2d4b,TaNbBr2(OF3)4,"['O', 'F', 'Br', 'Nb', 'Ta']",20,342.9584,3.5134,2,P2,3,monoclinic,-114.9534,-2.3495,-0.0141,0D,2.3532,True,0.0,,-0.0141,-0.0132
48794,Ho1O20Pr4Si4Y3,20877659d3,Pr4Y3Ho(SiO5)4,"['O', 'Si', 'Y', 'Pr', 'Ho']",32,468.3684,5.0614,1,P1,1,triclinic,-283.7992,-3.751,-0.0237,3D,4.6621,True,0.0,,-0.0237,-0.0047
48814,As4Li2O14Rb6,208ca17669,Rb3LiAs2O7,"['Li', 'O', 'As', 'Rb']",26,473.7413,3.6817,222,C222_1,20,orthorhombic,-151.3789,-2.0681,-0.1674,intercalated ion,3.4768,True,0.0,,-0.1674,-0.0163
48840,Br12Ir1La12Pt1Tc2,2090ae898f,La12Tc2IrPtBr12,"['Br', 'Tc', 'La', 'Ir', 'Pt']",28,940.7173,5.6645,2,C2,5,monoclinic,-160.2363,-1.6332,-0.0509,3D,,True,-0.0,,-0.0509,-0.0507
48914,Al6Ca1Eu2La1O14,209b30036d,CaLaEu2Al6O14,"['O', 'Al', 'Ca', 'La', 'Eu']",24,323.6564,4.4574,m,Cm,8,monoclinic,-204.1173,-3.5353,-0.0459,intercalated ion,2.2029,True,0.0,,-0.0459,-0.0331
48945,O28P8Pd4Sr3Tl1,209f5184e4,Sr3TlP8(PdO7)4,"['O', 'P', 'Sr', 'Pd', 'Tl']",44,627.3862,4.2049,m,Pm,6,monoclinic,-318.8515,-2.4739,-0.0098,intercalated ion,,False,-0.0,,-0.0098,-0.0046
48958,Au4Cl24Sb3Y1,20a1b9e2d4,YSb3(AuCl6)4,"['Cl', 'Y', 'Sb', 'Au']",32,1031.8627,3.3681,1,P1,1,triclinic,-115.142,-1.2134,-0.0119,1D,1.2329,True,0.0,,-0.0119,-0.0074
48975,Br2N2Pa1Pu1,20a3c86fad,PuPa(BrN)2,"['N', 'Br', 'Pa', 'Pu']",6,138.8774,7.9257,4mm,P4mm,99,tetragonal,-55.5845,-1.9759,-0.335,intercalated ion,0.0013,True,0.0,,-0.335,-0.1344
49002,Br4Cl3Nb3Te1,20a6d77100,Nb3TeBr4Cl3,"['Cl', 'Br', 'Nb', 'Te']",11,318.6284,4.3375,m,Cm,8,monoclinic,-61.3239,-1.4349,-0.043,2D,0.6598,True,0.0,,-0.043,-0.0028
49020,Bi3F28La1Ru4,20a9088ff1,LaBi3Ru4F28,"['F', 'Ru', 'La', 'Bi']",36,574.6365,4.9185,1,P1,1,triclinic,-199.4916,-2.563,-0.0352,3D,0.0003,False,0.0,,-0.0352,-0.031
49032,Ho3Ir2La2O14Tb1,20ab002b5f,La2TbHo3(IrO7)2,"['O', 'La', 'Tb', 'Ho', 'Ir']",22,297.5506,8.594,m,Pm,6,monoclinic,-184.1732,-3.1351,-0.0433,3D,0.0015,True,0.0,,-0.0433,-0.0344