Unnamed: 0,Composition,MaterialId,Reduced Formula,Elements,NSites,Volume,Density,Point Group,Space Group,Space Group Number,Crystal System,Corrected Energy,Formation Energy Per Atom,Decomposition Energy Per Atom,Dimensionality Cheon,Bandgap,Is Train,Decomposition Energy Per Atom All,Decomposition Energy Per Atom Relative,Decomposition Energy Per Atom MP,Decomposition Energy Per Atom MP OQMD
9832,Na2O64S16Sb6,069ab74c1f,NaSb3(SO4)8,"['O', 'Na', 'S', 'Sb']",88,1173.1948,3.2746,m,Pc,7,monoclinic,-561.2904,-1.716,-0.0366,intercalated ion,,True,0.0,,-0.0366,-0.0344
16931,Ac2Gd2O24S6,0b578f5646,AcGd(SO4)3,"['O', 'S', 'Gd', 'Ac']",34,580.5307,3.8469,m,Cc,9,monoclinic,-269.5615,-2.634,-0.3985,3D,,True,0.0,,-0.3985,-0.3259
18985,In1O24Pu3S6,0cb7c23bd1,Pu3In(SO4)6,"['O', 'S', 'In', 'Pu']",34,578.4729,4.0854,3,R3,146,trigonal,-267.5574,-2.3068,-0.1001,3D,,True,-0.0,,-0.1001,-0.0994
47209,Gd2La2O24S6,1f7f32bd4c,LaGd(SO4)3,"['O', 'S', 'La', 'Gd']",34,580.5307,3.3429,m,Cc,9,monoclinic,-271.1617,-2.6343,-0.2863,3D,2.9692,True,0.0,,-0.2863,-0.1018
74592,O24Pd3S6,31b5f5bb04,Pd(SO4)2,"['O', 'S', 'Pd']",33,438.8704,3.3888,3,R3,146,trigonal,-205.608,-1.409,-0.0627,3D,,True,0.0,,-0.0627,-0.0437
84281,Cs1O8S2Tm1,3841c4fdc3,CsTm(SO4)2,"['O', 'S', 'Cs', 'Tm']",12,227.8183,3.6004,32,P321,150,trigonal,-84.2625,-2.5862,-0.0299,intercalated ion,5.5553,True,0.0,,-0.0299,-0.0298
91922,Ca2O24S6Zr2,3d52151e75,CaZr(SO4)3,"['O', 'S', 'Ca', 'Zr']",34,542.74,2.5669,3,R3,146,trigonal,-249.6955,-2.5006,-0.035,intercalated ion,,True,0.0,,-0.035,-0.0042
96775,Au4Ca1O32S8Sr1,40939a4f0d,SrCaAu4(SO4)8,"['O', 'S', 'Ca', 'Sr', 'Au']",46,746.7736,3.7447,2,C2,5,monoclinic,-288.2182,-1.7392,-0.0307,intercalated ion,,True,0.0,,-0.0307,-0.0303
106530,Na2O24S6W2,470ab42494,NaW(SO4)3,"['O', 'Na', 'S', 'W']",34,556.3389,2.955,1,P1,1,triclinic,-236.556,-1.8946,-0.0016,intercalated ion,2.4039,True,0.0,,-0.0016,-0.0012
111917,Li2O24S6W2,4a93dead3f,LiW(SO4)3,"['Li', 'O', 'S', 'W']",34,542.9096,2.9299,1,P1,1,triclinic,-238.1645,-1.9077,-0.0029,intercalated ion,2.4085,True,0.0,,-0.0029,-0.0011
113743,Ge3Hg1O24S6,4bcca42636,HgGe3(SO4)6,"['O', 'S', 'Ge', 'Hg']",34,457.6066,3.6102,3,R3,146,trigonal,-215.8107,-1.7171,-0.0126,3D,,True,0.0,,-0.0126,-0.0121
130739,Ga3O24Rh1S6,570b0cd966,Ga3Rh(SO4)6,"['O', 'S', 'Ga', 'Rh']",34,431.7885,3.4167,3,R3,146,trigonal,-222.7516,-1.8451,-0.0242,3D,2.1011,True,0.0,,-0.0242,-0.0242
144535,O64Pt2S16Sn6,60311cc186,Sn3Pt(SO4)8,"['O', 'S', 'Sn', 'Pt']",88,1177.0691,3.7236,m,Pc,7,monoclinic,-570.5891,-1.722,-0.0095,3D,,True,0.0,,-0.0095,-0.007
147701,Au1Gd3O24S6,624d52e248,Gd3Au(SO4)6,"['O', 'S', 'Gd', 'Au']",34,578.4729,3.5741,3,R3,146,trigonal,-266.5799,-2.2778,-0.2431,3D,,True,-0.0,,-0.2431,-0.1463
147842,Gd3O24Pd1S6,6264dc4601,Gd3Pd(SO4)6,"['O', 'S', 'Pd', 'Gd']",34,578.4729,3.3142,3,R3,146,trigonal,-269.6998,-2.3136,-0.2623,3D,,False,0.0,,-0.2623,-0.1648
147952,Li2O24S6Ta2,6278e2547d,LiTa(SO4)3,"['Li', 'O', 'S', 'Ta']",34,542.9238,2.9122,1,P1,1,triclinic,-245.0587,-2.1752,-0.0672,intercalated ion,3.2143,False,-0.0,,-0.0672,-0.0658
153660,Na2Nb2O24S6,664fe52671,NaNb(SO4)3,"['O', 'Na', 'S', 'Nb']",34,538.3846,2.4926,1,P1,1,triclinic,-237.5845,-2.0929,-0.0135,intercalated ion,2.3893,True,0.0,,-0.0135,-0.0114
166663,Cu1O24Rh3S6,6ed58cc796,CuRh3(SO4)6,"['O', 'S', 'Cu', 'Rh']",34,452.0612,3.4846,3,R3,146,trigonal,-221.7377,-1.5287,-0.0615,3D,,True,0.0,,-0.0615,-0.058
178566,Gd3O24S6Sc1,76dce56e41,Gd3Sc(SO4)6,"['O', 'S', 'Sc', 'Gd']",34,578.4729,3.1378,3,R3,146,trigonal,-281.0901,-2.6147,-0.2764,3D,,False,0.0,,-0.2764,-0.1675
184636,Li2Nb2O24S6,7ae36991c3,LiNb(SO4)3,"['Li', 'O', 'S', 'Nb']",34,549.2941,2.3461,1,P1,1,triclinic,-239.2873,-2.1087,-0.0176,intercalated ion,2.4323,True,0.0,,-0.0176,-0.0161
189043,Cd2O64S16Sb6,7dd0f54a9b,CdSb3(SO4)8,"['O', 'S', 'Cd', 'Sb']",88,1265.7743,3.2697,m,Pc,7,monoclinic,-559.0842,-1.7001,-0.021,3D,,True,0.0,,-0.021,-0.021
193704,Gd3In1O24S6,80f5d0f1c4,Gd3In(SO4)6,"['O', 'S', 'In', 'Gd']",34,573.1043,3.3696,3,R3,146,trigonal,-271.9901,-2.4541,-0.2773,3D,,True,0.0,,-0.2773,-0.1684
257638,Gd2O24S6V2,ab5c911d3b,GdV(SO4)3,"['O', 'S', 'V', 'Gd']",34,538.0703,3.0638,m,Cc,9,monoclinic,-269.3335,-2.3354,-0.1623,3D,,True,0.0,,-0.1623,-0.0892
263471,Bi2O16Rb2S4,af494f454d,RbBi(SO4)2,"['O', 'S', 'Rb', 'Bi']",24,418.2694,3.8634,2,P321,150,trigonal,-153.4295,-1.999,-0.0173,intercalated ion,4.2646,True,0.0,,-0.0173,-0.0173
264959,Ga1Gd3O24S6,b04c6532bc,Gd3Ga(SO4)6,"['O', 'S', 'Ga', 'Gd']",34,578.4729,3.2088,3,R3,146,trigonal,-272.1549,-2.449,-0.2692,3D,,True,0.0,,-0.2692,-0.1603
268935,Cu2O24S6Ta2,b2ef04ee3f,TaCu(SO4)3,"['O', 'S', 'Cu', 'Ta']",34,489.7061,3.6125,m,Cc,9,monoclinic,-241.7299,-1.9484,-0.0372,3D,0.3868,True,0.0,,-0.0372,-0.0297
269502,H2Nb1O24S6Ta1,b352520489,TaNbH2(SO4)6,"['H', 'O', 'S', 'Nb', 'Ta']",34,535.0159,2.6451,1,P1,1,triclinic,-238.7332,-1.9535,-0.0305,intercalated ion,,False,0.0,,-0.0305,-0.0302
281075,Ag2O24S6W2,bb093f38ed,AgW(SO4)3,"['O', 'S', 'Ag', 'W']",34,563.2358,3.4193,1,P1,1,triclinic,-232.4819,-1.6862,-0.0042,3D,,False,0.0,,-0.0042,-0.0036
286804,Na2O24S6Sb2,bec26eb3bc,NaSb(SO4)3,"['O', 'Na', 'S', 'Sb']",34,496.5341,2.8957,m,Cc,9,monoclinic,-216.248,-1.8169,-0.0471,intercalated ion,,True,-0.0,,-0.0471,-0.0409
289572,Ga3O24S6V1,c091ba69af,VGa3(SO4)6,"['O', 'S', 'V', 'Ga']",34,438.4023,3.1684,3,R3,146,trigonal,-229.1572,-1.9829,-0.0007,3D,,True,0.0,,-0.0007,-0.0005
306073,F12K4O16Rb4S4Sb4,cb946efc57,KRbSbSO4F3,"['O', 'F', 'S', 'K', 'Rb', 'Sb']",44,764.1365,3.4716,2,P2_1,4,monoclinic,-251.4781,-2.4534,-0.0046,intercalated ion,,True,0.0,,-0.0046,-0.0005
320527,Li2O16Rh2S4,d522f28d88,LiRh(SO4)2,"['Li', 'O', 'S', 'Rh']",24,277.7028,3.6113,2,P2_1,4,monoclinic,-156.6367,-1.7657,-0.0453,intercalated ion,1.2092,True,0.0,,-0.0453,-0.0432
322254,O24Pd3S6,d64b4926e8,Pd(SO4)2,"['O', 'S', 'Pd']",33,439.1679,3.3865,3,R3,146,trigonal,-205.6084,-1.4091,-0.0627,3D,,True,0.0,,-0.0627,-0.0437
332959,Cs1Lu1O8S2,dd7b77f578,CsLu(SO4)2,"['O', 'S', 'Cs', 'Lu']",12,224.3456,3.7008,32,P321,150,trigonal,-84.3742,-2.5918,-0.0315,intercalated ion,5.6098,False,0.0,,-0.0315,-0.0314
340177,Cu3O24Rh1S6,e241982c60,Cu3Rh(SO4)6,"['O', 'S', 'Cu', 'Rh']",34,444.2571,3.2516,3,R3,146,trigonal,-214.0332,-1.4942,-0.0171,3D,,True,0.0,,-0.0171,-0.0136
344525,Li2Nb1O24S6Ta1,e52539ada3,Li2TaNb(SO4)6,"['Li', 'O', 'S', 'Nb', 'Ta']",34,546.8064,2.6241,1,P1,1,triclinic,-242.2035,-2.1428,-0.0433,intercalated ion,inf,True,0.0,,-0.0433,-0.0419
345936,Na2O24Pt2S6,e61b19fdc4,NaPt(SO4)3,"['O', 'Na', 'S', 'Pt']",34,506.6467,3.3186,1,P1,1,triclinic,-212.5381,-1.5933,-0.0182,intercalated ion,,True,0.0,,-0.0182,-0.0128
357684,Ge3O24S6,edd649ca87,Ge(SO4)2,"['O', 'S', 'Ge']",33,412.0129,3.2013,3,R3,146,trigonal,-214.3241,-1.7238,-0.0094,3D,2.5466,True,0.0,,-0.0094,-0.0094
364980,In3O24S6V1,f2a8b369bf,VIn3(SO4)6,"['O', 'S', 'V', 'In']",34,489.0796,3.2994,3,R3,146,trigonal,-227.8662,-1.9693,-0.0016,3D,2.3796,False,0.0,,-0.0016,-0.0014
370101,Cd4Li8O64S16Sn4,f624aab69c,Li2CdSn(SO4)4,"['Li', 'O', 'S', 'Cd', 'Sn']",96,1284.2888,3.2544,m,Pc,7,monoclinic,-607.2397,-1.9728,-0.0062,intercalated ion,,True,-0.0,,-0.0062,-0.0034
376090,Ce1Cs1O8S2,fa21f45a96,CsCe(SO4)2,"['O', 'S', 'Cs', 'Ce']",12,249.4052,3.0969,32,P321,150,trigonal,-84.9733,-2.524,-0.0485,intercalated ion,0.3025,True,-0.0,,-0.0485,-0.019
382698,Ce1La3O24S6,fe886be341,La3Ce(SO4)6,"['O', 'S', 'La', 'Ce']",34,503.6794,3.736,1,P1,1,triclinic,-254.2709,-2.6459,-0.151,3D,,True,0.0,,-0.151,-0.011