Unnamed: 0,Composition,MaterialId,Reduced Formula,Elements,NSites,Volume,Density,Point Group,Space Group,Space Group Number,Crystal System,Corrected Energy,Formation Energy Per Atom,Decomposition Energy Per Atom,Dimensionality Cheon,Bandgap,Is Train,Decomposition Energy Per Atom All,Decomposition Energy Per Atom Relative,Decomposition Energy Per Atom MP,Decomposition Energy Per Atom MP OQMD
5625,Cs4N8Nb4O32,03c16931ec,CsNb(NO4)2,"['N', 'O', 'Nb', 'Cs']",48,868.703,2.9194,222,P2_12_12_1,19,orthorhombic,-349.3815,-1.6743,-0.0183,intercalated ion,,True,0.0,,-0.0183,-0.0115
8319,C12Ca3Cd3N12O12,059ea2a5be,CaCdC4(NO)4,"['C', 'N', 'O', 'Ca', 'Cd']",42,473.3728,3.3734,3,R3,146,trigonal,-330.1589,-1.22,-0.0342,intercalated ion,3.5607,True,0.0,,-0.0342,-0.024
17306,Al8Ba4N8O12Si4,0b9a5215a8,BaAl2SiN2O3,"['N', 'O', 'Al', 'Si', 'Ba']",36,485.126,4.0443,222,P2_12_12_1,19,orthorhombic,-279.4461,-2.6121,-0.007,intercalated ion,3.8298,True,0.0,,-0.007,-0.0049
22306,Ce4N11O1Ta4,0eda0f6106,Ce4Ta4N11O,"['N', 'O', 'Ce', 'Ta']",20,257.6714,9.3723,m,Pm,6,monoclinic,-201.963,-1.7075,-0.1158,3D,0.0014,True,0.0,,-0.1158,-0.0877
32691,Ce2N1O1P1,15d59004a8,Ce2PNO,"['N', 'O', 'P', 'Ce']",5,89.7404,6.3137,3m,P3m1,156,trigonal,-41.8955,-2.2663,-0.0681,3D,0.6651,True,0.0,,-0.0681,-0.0009
33016,As3Ce4N2O2,1610cbfc95,Ce4As3(NO)2,"['N', 'O', 'As', 'Ce']",11,209.0789,6.713,mm2,Amm2,38,orthorhombic,-87.4312,-2.1048,-0.139,3D,0.0625,True,0.0,,-0.139,-0.0929
33827,Ag6N1O11Y1,16949597bc,YAg6NO11,"['N', 'O', 'Y', 'Ag']",19,261.76,5.875,3m,R3m,160,trigonal,-105.1692,-0.997,-0.0152,3D,0.003,True,0.0,,-0.0152,-0.0151
39399,Ag5Li1N1O11Tm1,1a4cb371d8,LiTmAg5NO11,"['Li', 'N', 'O', 'Ag', 'Tm']",19,248.5036,6.0488,m,Cm,8,monoclinic,-105.3017,-1.1574,-0.0055,intercalated ion,0.0018,False,0.0,,-0.0055,-0.0048
45967,Ag6N1O11Pb1,1eb4829587,Ag6PbNO11,"['N', 'O', 'Ag', 'Pb']",19,264.213,6.564,3m,R3m,160,trigonal,-96.1132,-0.6653,-0.0092,3D,0.0013,True,0.0,,-0.0092,-0.0091
47052,F6Ir4N3O1,1f654c21bd,Ir4N3OF6,"['N', 'O', 'F', 'Ir']",14,164.9779,9.4701,1,P1,1,triclinic,-92.412,-1.1166,-0.0614,3D,0.0004,True,-0.0,,-0.0614,-0.0566
55622,Ba2N3O6Sr1Ta3,24fbeff2b4,Ba2SrTa3(NO2)3,"['N', 'O', 'Sr', 'Ba', 'Ta']",15,210.6567,8.2227,m,Pm,6,monoclinic,-136.4082,-2.7073,-0.0086,intercalated ion,0.8992,True,0.0,,-0.0086,-0.0028
60873,As1Ce2N1O1,288c1e4121,Ce2AsNO,"['N', 'O', 'As', 'Ce']",5,93.5796,6.8345,3m,P3m1,156,trigonal,-41.1014,-2.2583,-0.096,3D,0.4031,True,0.0,,-0.096,-0.0542
61257,F6Ir4N1O3,28cfeb88d5,Ir4N(OF2)3,"['N', 'O', 'F', 'Ir']",14,165.1739,9.499,1,P1,1,triclinic,-89.1358,-1.3666,-0.0412,3D,0.0127,True,0.0,,-0.0412,-0.0394
65954,Ag6Bi1N1O11,2c085a4a41,Ag6BiNO11,"['N', 'O', 'Ag', 'Bi']",19,267.1204,6.5036,3m,R3m,160,trigonal,-96.8567,-0.6951,-0.0162,3D,0.0015,True,0.0,,-0.0162,-0.016
74169,F12N1O3Os4,3175a36f41,Os4N(OF4)3,"['N', 'O', 'F', 'Os']",20,354.4768,4.9229,1,P1,1,triclinic,-127.815,-1.8394,-0.0647,2D,0.1878,True,0.0,,-0.0647,-0.0611
77539,Cs2H1N1O6,33b8e8b4f1,Cs2HNO6,"['H', 'N', 'O', 'Cs']",10,205.3976,3.0464,mm2,Pmm2,25,orthorhombic,-55.9474,-1.274,-0.0765,intercalated ion,0.3095,True,-0.0,,-0.0765,-0.0719
86122,N2Na4Nb2O4,39782abc7a,Na2NbNO2,"['N', 'O', 'Na', 'Nb']",12,194.1516,3.1627,mm2,Cmc2_1,36,orthorhombic,-85.9028,-1.9954,-0.0196,intercalated ion,3.4802,False,0.0,,-0.0196,-0.0144
86967,C1K2N1O6,3a03aea2fa,K2CNO6,"['C', 'N', 'O', 'K']",10,177.0809,1.8774,m,Pm,6,monoclinic,-65.8437,-1.6372,-0.0155,intercalated ion,0.2062,True,0.0,,-0.0155,-0.0078
89738,Ag1N5O14,3bdadbf5e7,AgN5O14,"['N', 'O', 'Ag']",20,308.1646,2.1656,-4,I-4,82,tetragonal,-127.2907,-0.6752,-0.0624,0D,0.7665,False,0.0,,-0.0624,-0.0607
96865,Ag6N1O11Pb1,40a158fb4b,Ag6PbNO11,"['N', 'O', 'Ag', 'Pb']",19,263.8836,6.5721,3m,R3m,160,trigonal,-96.1136,-0.6653,-0.0093,3D,0.0009,True,0.0,,-0.0093,-0.0091
107301,Ag5Cu1N1O11Pb1,47908a44ab,CuAg5PbNO11,"['N', 'O', 'Cu', 'Ag', 'Pb']",19,253.3291,6.5554,m,Cm,8,monoclinic,-98.5212,-0.7254,-0.01,3D,0.0008,True,0.0,,-0.01,-0.01
117093,Ag6La1N1O11,4dfcba4bfe,LaAg6NO11,"['N', 'O', 'Ag', 'La']",19,269.3417,6.0179,3m,R3m,160,trigonal,-103.6318,-0.9967,-0.0239,3D,0.0023,False,0.0,,-0.0239,-0.0055
126199,N3O8,540542acf5,N3O8,"['N', 'O']",11,164.1678,1.7197,1,P1,1,triclinic,-71.5002,-0.6279,-0.0298,0D,0.8728,True,-0.0,,-0.0298,-0.0298
139561,F1N1O4Re2,5ce38ada56,Re2NO4F,"['N', 'O', 'F', 'Re']",8,112.4911,6.9293,mm2,Amm2,38,orthorhombic,-70.0512,-1.8903,-0.0818,3D,0.0276,True,0.0,,-0.0818,-0.0791
155527,N1O11Re2Tb5,678bd63c0b,Tb5Re2NO11,"['N', 'O', 'Tb', 'Re']",19,259.0154,8.6999,m,Cm,8,monoclinic,-171.5949,-3.1984,-0.0065,3D,0.0097,True,0.0,,-0.0065,-0.0065
156418,Bi2N6O18,681989d2eb,Bi(NO3)3,"['N', 'O', 'Bi']",26,357.9858,3.6644,222,P2_12_12,18,orthorhombic,-171.1104,-0.9326,-0.0982,1D,,True,0.0,,-0.0982,-0.0982
172209,Ag5Cd2N1O11,729c922492,Cd2Ag5NO11,"['N', 'O', 'Ag', 'Cd']",19,259.6849,6.1013,m,Cm,8,monoclinic,-92.7382,-0.735,-0.0318,3D,0.0111,True,0.0,,-0.0318,-0.0315
172268,Ac1Ag6N1O11,72a71f5888,AcAg6NO11,"['N', 'O', 'Ag', 'Ac']",19,274.8958,6.4285,3m,R3m,160,trigonal,-102.6209,-0.9863,-0.0388,3D,0.0124,True,0.0,,-0.0388,-0.0339
179121,Ag6Lu1N1O11,773d954b56,LuAg6NO11,"['N', 'O', 'Ag', 'Lu']",19,257.7389,6.5212,3m,R3m,160,trigonal,-103.3662,-1.0045,-0.0061,3D,0.0026,True,0.0,,-0.0061,-0.0056
180163,Li10N2O8Tc2,77f10c1011,Li5TcNO4,"['Li', 'N', 'O', 'Tc']",22,220.7854,3.1695,mm2,Cmc2_1,36,orthorhombic,-138.0305,-1.9074,-0.064,intercalated ion,0.557,False,0.0,,-0.064,-0.0422
187867,Cl7N3O1,7d0711cbd6,N3Cl7O,"['N', 'O', 'Cl']",11,412.2018,1.2335,1,P1,1,triclinic,-47.7595,-0.442,-0.3484,0D,1.1715,True,0.0,,-0.3484,-0.3314
189280,Cs1F2N1O1,7df83c5933,CsNOF2,"['N', 'O', 'F', 'Cs']",5,99.0501,3.3682,m,Cm,8,monoclinic,-26.2243,-1.6443,-0.008,intercalated ion,,False,0.0,,-0.008,-0.0078
191484,Ag3Cd1Hg3N1O11,7f7c72c290,CdAg3Hg3NO11,"['N', 'O', 'Ag', 'Cd', 'Hg']",19,281.6884,7.2377,m,Cm,8,monoclinic,-86.0188,-0.6802,-0.0097,3D,0.5229,True,0.0,,-0.0097,-0.0089
192771,N2O6Tc4,8057967a8a,Tc2NO3,"['N', 'O', 'Tc']",12,131.4456,6.5187,2,P2_1,4,monoclinic,-105.2648,-1.4551,-0.0135,3D,0.0006,True,-0.0,,-0.0135,-0.0133
199808,N1O1Pu2Te1,8505cebc9f,Pu2TeNO,"['N', 'O', 'Te', 'Pu']",5,96.2818,11.1345,-42m,I-4m2,119,tetragonal,-56.1388,-2.2351,-0.1896,3D,0.0004,True,0.0,,-0.1896,-0.0277
201531,Ca4N4O8Re4,862e2233eb,CaReNO2,"['N', 'O', 'Ca', 'Re']",20,238.9376,7.5693,mm2,Pmc2_1,26,orthorhombic,-170.6492,-1.996,-0.0109,intercalated ion,0.0021,True,0.0,,-0.0109,-0.0106
202121,Ba6N2O16Tc6,86958c79e4,Ba3Tc3NO8,"['N', 'O', 'Tc', 'Ba']",30,417.6051,6.7437,m,Cm,8,monoclinic,-238.2219,-2.2901,-0.0263,intercalated ion,0.0048,True,0.0,,-0.0263,-0.0172
208831,As3Ce4N1O3,8afd784dfc,Ce4As3NO3,"['N', 'O', 'As', 'Ce']",11,207.1594,6.7912,mm2,Amm2,38,orthorhombic,-87.7601,-2.4427,-0.1043,3D,0.001,True,0.0,,-0.1043,-0.0648
209640,Ag6N1O11Tm1,8b896a80dc,TmAg6NO11,"['N', 'O', 'Ag', 'Tm']",19,259.1266,6.4476,3m,R3m,160,trigonal,-103.342,-1.0056,-0.0095,3D,0.0015,True,0.0,,-0.0095,-0.0094
210831,Ag5Li1N1O11Y1,8c5092e55e,LiYAg5NO11,"['Li', 'N', 'O', 'Y', 'Ag']",19,251.1735,5.4554,m,Cm,8,monoclinic,-107.0778,-1.1461,-0.0102,intercalated ion,0.0025,True,0.0,,-0.0102,-0.0095
236662,Ag6N1O11Tm1,9d6bd31181,TmAg6NO11,"['N', 'O', 'Ag', 'Tm']",19,259.1266,6.4476,3m,R3m,160,trigonal,-103.342,-1.0056,-0.0095,3D,0.0015,True,0.0,,-0.0095,-0.0094
247945,Ag6N1O11Y1,a4dc29b821,YAg6NO11,"['N', 'O', 'Y', 'Ag']",19,262.3886,5.861,3m,R3m,160,trigonal,-105.1692,-0.997,-0.0152,3D,0.0036,True,0.0,,-0.0152,-0.0151
256417,N1Np2O1Sb1,aa87394b7c,Np2SbNO,"['N', 'O', 'Sb', 'Np']",5,93.3582,11.1303,-42m,I-4m2,119,tetragonal,-52.3798,-1.8142,-0.1062,3D,0.0006,True,0.0,,-0.1062,-0.0957
259536,F12N2O2Os4,aca5695bd1,Os2NOF6,"['N', 'O', 'F', 'Os']",20,354.3769,4.915,1,P1,1,triclinic,-129.3003,-1.7442,-0.0703,2D,0.3794,True,0.0,,-0.0703,-0.0654
260366,Ac2N6O18,ad369761df,Ac(NO3)3,"['N', 'O', 'Ac']",26,330.44,4.151,222,P2_12_12,18,orthorhombic,-185.3618,-1.463,-0.2456,3D,,True,0.0,,-0.2456,-0.2456
261985,N1Np2O1Se1,ae4b16b80b,Np2SeNO,"['N', 'O', 'Se', 'Np']",5,89.325,10.8373,3m,P3m1,156,trigonal,-53.7047,-2.2057,-0.1507,3D,,True,0.0,,-0.1507,-0.0224
266201,N4Nb2O8Sr4Ta2,b1197bd965,Sr2TaNb(NO2)2,"['N', 'O', 'Sr', 'Nb', 'Ta']",20,272.8792,6.5855,1,P1,1,triclinic,-176.7859,-2.659,-0.0097,intercalated ion,1.4328,True,0.0,,-0.0097,-0.0044
275260,Ag3Hg4N1O11,b729929e95,Ag3Hg4NO11,"['N', 'O', 'Ag', 'Hg']",19,288.0984,7.5849,m,Cm,8,monoclinic,-83.6353,-0.5873,-0.0012,3D,0.3465,False,0.0,,-0.0012,-0.0006
284480,Ag6Bi1N1O11,bd331803fd,Ag6BiNO11,"['N', 'O', 'Ag', 'Bi']",19,266.7656,6.5122,3m,R3m,160,trigonal,-96.8565,-0.6951,-0.0162,3D,0.0003,True,0.0,,-0.0162,-0.016
292473,Ce2N1O1Te1,c291992c56,Ce2TeNO,"['N', 'O', 'Te', 'Ce']",5,104.6201,6.9494,-42m,I-4m2,119,tetragonal,-40.8952,-2.5203,-0.1124,3D,,True,0.0,,-0.1124,-0.0385
296865,N4O8Sr4Tc4,c5738f773b,SrTcNO2,"['N', 'O', 'Sr', 'Tc']",20,251.4605,6.1182,m,Pc,7,monoclinic,-159.8304,-1.935,-0.0303,intercalated ion,0.0014,True,0.0,,-0.0303,-0.0301
298481,Ag6N1O11Tb1,c685d94b67,TbAg6NO11,"['N', 'O', 'Ag', 'Tb']",19,262.0694,6.3118,3m,R3m,160,trigonal,-103.4099,-1.0009,-0.017,3D,0.0057,True,0.0,,-0.017,-0.0169
305364,Ce2N1O1Sb1,cb1ba300b8,Ce2SbNO,"['N', 'O', 'Sb', 'Ce']",5,101.9911,7.0335,-42m,I-4m2,119,tetragonal,-40.6157,-2.2672,-0.1234,3D,0.1406,True,0.0,,-0.1234,-0.0899
306870,Ba1N2O4Sr1Ta2,cc244995d4,BaSrTa2(NO2)2,"['N', 'O', 'Sr', 'Ba', 'Ta']",10,140.402,8.0288,m,Pm,6,monoclinic,-91.0195,-2.7231,-0.0208,intercalated ion,,True,0.0,,-0.0208,-0.0069
308738,As3Ce4N3O1,cd56487f58,Ce4As3N3O,"['N', 'O', 'As', 'Ce']",11,210.7864,6.643,m,Cm,8,monoclinic,-86.8817,-1.7468,-0.1537,3D,0.0232,True,0.0,,-0.1537,-0.1027
313925,Ag6Cd1N1O11,d0c6f40eb5,CdAg6NO11,"['N', 'O', 'Ag', 'Cd']",19,257.3718,6.1269,3m,R3m,160,trigonal,-92.6516,-0.63,-0.0202,3D,0.0004,True,0.0,,-0.0202,-0.02
330353,Cl2N1Np2O1,dbb3cac317,Np2NCl2O,"['N', 'O', 'Cl', 'Np']",6,132.1981,7.2215,3m,R3m,160,trigonal,-57.1429,-2.3776,-0.0773,2D,0.0015,True,0.0,,-0.0773,-0.0181
331920,Ce2Cl2N1O1,dcc4a62a1b,Ce2NCl2O,"['N', 'O', 'Cl', 'Ce']",6,133.7198,4.7331,3m,R3m,160,trigonal,-45.666,-2.8031,-0.1349,2D,,True,0.0,,-0.1349,-0.0116
344075,Bi10N1O9Tb18,e4d9082c26,Tb18Bi10NO9,"['N', 'O', 'Tb', 'Bi']",38,915.5367,9.2654,4,P4,75,tetragonal,-256.7334,-2.146,-0.0128,3D,0.0042,False,0.0,,-0.0128,-0.0124
347891,In1N5O14,e765af2375,InN5O14,"['N', 'O', 'In']",20,289.9435,2.3415,-4,I-4,82,tetragonal,-131.1419,-0.8718,-0.0821,0D,,True,0.0,,-0.0821,-0.0821
365388,Ag3Cd4N1O11,f2eb5264b5,Cd4Ag3NO11,"['N', 'O', 'Ag', 'Cd']",19,269.5792,5.9334,m,Cm,8,monoclinic,-92.5193,-0.9245,-0.0344,3D,0.4889,False,0.0,,-0.0344,-0.0337
375786,N2Nb4O22P6,f9ed1dc33c,Nb2P3NO11,"['N', 'O', 'P', 'Nb']",34,509.4951,3.0554,1,P1,1,triclinic,-289.7624,-2.6867,-0.0144,intercalated ion,2.3861,False,0.0,,-0.0144,-0.0119
376392,F2N1O1Rb1,fa52863776,RbNOF2,"['N', 'O', 'F', 'Rb']",5,96.0677,2.6528,m,Cm,8,monoclinic,-26.3603,-1.6545,-0.0054,intercalated ion,,True,0.0,,-0.0054,-0.0052
384399,As1N1O1Pu2,ffac3a13b3,Pu2AsNO,"['N', 'O', 'As', 'Pu']",5,86.5301,11.3785,3m,P3m1,156,trigonal,-56.4866,-2.0015,-0.1081,3D,,True,0.0,,-0.1081,-0.1043