Unnamed: 0,Composition,MaterialId,Reduced Formula,Elements,NSites,Volume,Density,Point Group,Space Group,Space Group Number,Crystal System,Corrected Energy,Formation Energy Per Atom,Decomposition Energy Per Atom,Dimensionality Cheon,Bandgap,Is Train,Decomposition Energy Per Atom All,Decomposition Energy Per Atom Relative,Decomposition Energy Per Atom MP,Decomposition Energy Per Atom MP OQMD
400,O10P1S1Tc2,004615cd9b,Tc2PSO10,"['O', 'P', 'S', 'Tc']",14,181.5394,3.8329,2,C2,5,monoclinic,-107.5551,-1.986,-0.0595,3D,0.0047,True,0.0,,-0.0595,-0.0595
3815,Ac2O15S4,028b1ff3c3,Ac2S4O15,"['O', 'S', 'Ac']",21,334.4237,4.0828,1,P1,1,triclinic,-151.1558,-2.4832,-0.3907,3D,5.1102,True,0.0,,-0.3907,-0.3907
6791,Cd4Ga6O16S1,048e17f337,Cd4Ga6SO16,"['O', 'S', 'Ga', 'Cd']",27,429.3478,4.4711,-4,I-4,82,tetragonal,-159.2,-2.0013,-0.0106,3D,2.1892,True,0.0,,-0.0106,-0.0106
9979,F8Li1Na11O32S8V4,06b70f2ab7,Na11LiV4S8(O4F)8,"['Li', 'O', 'F', 'Na', 'S', 'V']",64,863.8575,2.6605,2,P2,3,monoclinic,-412.4076,-2.389,-0.0144,intercalated ion,,True,0.0,,-0.0144,-0.004
16519,H8O2S4Sr2,0b0bd0949b,SrH4S2O,"['H', 'O', 'S', 'Sr']",16,241.5303,2.362,mm2,Pmc2_1,26,orthorhombic,-76.2204,-1.2036,-0.0052,intercalated ion,3.9784,True,0.0,,-0.0052,-0.0044
20659,O2S13,0dca119f9f,S13O2,"['O', 'S']",15,1004.6891,0.7418,1,P1,1,triclinic,-68.3298,-0.3107,-0.0061,0D,0.628,True,0.0,,-0.0061,-0.0049
39630,B4Li4O32S7Se1,1a72889aad,Li4B4SeS7O32,"['Li', 'B', 'O', 'S', 'Se']",48,646.7019,2.276,1,P1,1,triclinic,-323.9962,-2.0595,-0.0048,intercalated ion,,True,0.0,,-0.0048,-0.0021
44569,O56S12Ta8,1dc1b16d93,Ta2S3O14,"['O', 'S', 'Ta']",76,1012.611,4.4741,mm2,Pna2_1,33,orthorhombic,-593.5065,-2.2621,-0.0362,3D,,True,0.0,,-0.0362,-0.0362
50451,Ba2O26S7Se1,2192a07ad1,Ba2SeS7O26,"['O', 'S', 'Se', 'Ba']",36,570.1226,2.8953,1,P1,1,triclinic,-234.1146,-1.9216,-0.002,intercalated ion,2.7756,True,0.0,,-0.002,-0.0018
55805,O25S1Ta9,251984a4ff,Ta9SO25,"['O', 'S', 'Ta']",35,469.6006,7.2864,-4,I-4,82,tetragonal,-345.3263,-3.1649,-0.0068,3D,,False,0.0,,-0.0068,-0.0065
57770,Bi2Cu2O2S1Se1,267540d6c1,Cu2Bi2SeSO2,"['O', 'S', 'Cu', 'Se', 'Bi']",8,137.0996,8.3339,4mm,P4mm,99,tetragonal,-41.2472,-0.9675,-0.0222,2D,0.4208,True,0.0,,-0.0222,-0.002
58597,O12S2Tb3Y1,2703bbbf75,Tb3Y(SO6)2,"['O', 'S', 'Y', 'Tb']",18,219.3144,6.2223,1,P1,1,triclinic,-145.0009,-3.1657,-0.0174,3D,5.2746,True,0.0,,-0.0174,-0.0174
69237,Bi1La3O12S2,2e322c6b80,La3Bi(SO6)2,"['O', 'S', 'La', 'Bi']",18,250.7545,5.8396,1,P1,1,triclinic,-137.9124,-2.8648,-0.0143,3D,3.9101,True,0.0,,-0.0143,-0.0056
76339,N1Np2O1S1,32e1dd690c,Np2SNO,"['N', 'O', 'S', 'Np']",5,83.2197,10.6966,3m,P3m1,156,trigonal,-54.8006,-2.2968,-0.1336,3D,0.0002,True,0.0,,-0.1336,-0.0215
78558,B8Ba2O52S12Sr2,3461eca097,BaSrB4(S3O13)2,"['B', 'O', 'S', 'Sr', 'Ba']",76,965.3418,3.0157,mm2,Pmc2_1,26,orthorhombic,-543.14,-2.31,-0.0132,intercalated ion,6.2061,True,0.0,,-0.0132,-0.0011
86714,Bi3Cu4O4Pb1S4,39dbb3b786,Cu4Bi3Pb(SO)4,"['O', 'S', 'Cu', 'Pb', 'Bi']",16,271.3301,7.8372,4mm,I4mm,107,tetragonal,-83.9609,-0.9902,-0.0211,2D,0.0068,True,0.0,,-0.0211,-0.0005
90837,Np8O72S16,3c966b6230,NpS2O9,"['O', 'S', 'Np']",96,1439.5258,4.1077,mm2,Pca2_1,29,orthorhombic,-741.0385,-2.2398,-0.0945,3D,,True,0.0,,-0.0945,-0.092
90917,F8Ga3Na12O32S8V1,3ca3765528,Na12VGa3S8(O4F)8,"['O', 'F', 'Na', 'S', 'V', 'Ga']",64,800.6744,3.0206,2,P2,3,monoclinic,-389.7894,-2.3286,-0.0136,intercalated ion,,True,0.0,,-0.0136,-0.0111
95619,O12S2Tb1Y3,3fd15287d7,TbY3(SO6)2,"['O', 'S', 'Y', 'Tb']",18,219.2373,5.1638,1,P1,1,triclinic,-148.4506,-3.1538,-0.0095,3D,5.2015,True,-0.0,,-0.0095,-0.0094
98461,Bi1Cd1O16S2Sb5,41a54cb515,CdBiSb5(SO8)2,"['O', 'S', 'Cd', 'Sb', 'Bi']",25,404.0767,5.1381,1,P1,1,triclinic,-158.2758,-1.8151,-0.0162,3D,3.2179,False,0.0,,-0.0162,-0.0139
100253,Al4F12K8O16S3Se1,42dea081b0,K8Al4SeS3(O4F3)4,"['O', 'F', 'Al', 'S', 'K', 'Se']",44,656.1625,2.7327,2,P2,3,monoclinic,-265.5075,-2.8098,-0.0067,intercalated ion,,True,0.0,,-0.0067,-0.0053
110137,Np2O28S8,49632f7ba9,Np(S2O7)2,"['O', 'S', 'Np']",38,550.7156,3.5535,1,P1,1,triclinic,-273.4744,-1.9985,-0.0709,3D,0.001,True,0.0,,-0.0709,-0.0684
110973,F8Ga3Na12O32S8V1,49f0c44b2d,Na12VGa3S8(O4F)8,"['O', 'F', 'Na', 'S', 'V', 'Ga']",64,800.6744,3.0206,2,P2,3,monoclinic,-389.7894,-2.3286,-0.0136,intercalated ion,,True,0.0,,-0.0136,-0.0111
114191,N1O3S24,4c15a9eeb1,S24NO3,"['N', 'O', 'S']",28,959.4778,1.4392,3m,R3m,160,trigonal,-136.8636,-0.5146,-0.2698,,,,0.0,,-0.2698,-0.2488
120593,Ca3O56S16Si2Sr1,5042bef3e4,SrCa3Si2(S2O7)8,"['O', 'Si', 'S', 'Ca', 'Sr']",78,1109.235,2.5045,1,P1,1,triclinic,-524.2774,-2.0827,-0.0016,intercalated ion,,True,0.0,,-0.0016,-0.0016
122114,B8Ba4O52S9Se3,5151d7f5b3,Ba4B8Se3S9O52,"['B', 'O', 'S', 'Se', 'Ba']",76,1035.3204,3.1969,1,P1,1,triclinic,-532.8359,-2.1936,-0.0065,intercalated ion,,True,0.0,,-0.0065,-0.0062
125167,As1F12Na8O16S4Sb3,5350a00708,Na8Sb3AsS4(O4F3)4,"['O', 'F', 'Na', 'S', 'As', 'Sb']",44,629.1892,3.2629,m,Cm,8,monoclinic,-251.282,-2.3865,-0.004,2D,,True,-0.0,,-0.004,-0.0036
141827,F12K5O16Rb3S4Sb4,5e6b148ebd,K5Rb3Sb4S4(O4F3)4,"['O', 'F', 'S', 'K', 'Rb', 'Sb']",44,764.1365,3.3708,1,P1,1,triclinic,-251.6757,-2.4549,-0.0036,intercalated ion,,True,-0.0,,-0.0036,-0.0004
145607,Nb9O25S1,60e889ec6e,Nb9SO25,"['O', 'S', 'Nb']",35,493.4699,4.2676,-4,I-4,82,tetragonal,-320.4892,-2.9069,-0.0127,3D,0.0012,False,0.0,,-0.0127,-0.0011
146254,La2O15S4,615362ec72,La2S4O15,"['O', 'S', 'La']",21,319.4796,3.358,1,P1,1,triclinic,-152.3393,-2.462,-0.1892,3D,,True,0.0,,-0.1892,-0.0081
148959,Bi1O12S2Tb3,6327f87632,Tb3Bi(SO6)2,"['O', 'S', 'Tb', 'Bi']",18,225.6342,6.9317,1,P1,1,triclinic,-136.6587,-2.8454,-0.0181,3D,4.0682,True,-0.0,,-0.0181,-0.0181
156650,Cs4O24P4S4,683efadf13,CsPSO6,"['O', 'P', 'S', 'Cs']",36,652.1113,2.9736,222,P2_12_12_1,19,orthorhombic,-241.7223,-2.2553,-0.0664,intercalated ion,4.721,True,0.0,,-0.0664,-0.0325
157676,Cs1F4H2O12Rb1S4,68e979878a,CsRbH2S4(O3F)4,"['H', 'O', 'F', 'S', 'Rb', 'Cs']",24,440.5604,2.3242,2,C2,5,monoclinic,-140.4473,-2.0091,-0.006,intercalated ion,,True,0.0,,-0.006,-0.0049
158915,Al1F8Na12O32S8V3,69b651cd69,Na12AlV3S8(O4F)8,"['O', 'F', 'Na', 'Al', 'S', 'V']",64,863.8575,2.6453,2,P2,3,monoclinic,-408.5821,-2.4218,-0.0122,intercalated ion,,True,0.0,,-0.0122,-0.0071
164315,F24K7O16Rb1S4Sb8,6d4737e6e5,K7RbSb8S4(O2F3)8,"['O', 'F', 'S', 'K', 'Rb', 'Sb']",60,1035.7465,3.4845,1,P1,1,triclinic,-335.1194,-2.5291,-0.0004,intercalated ion,,True,0.0,,-0.0004,-0.0001
167705,O24P4Rb4S4,6f8d2ef55c,RbPSO6,"['O', 'P', 'S', 'Rb']",36,591.5784,2.7452,222,P2_12_12_1,19,orthorhombic,-241.8482,-2.2493,-0.0073,intercalated ion,4.7393,True,0.0,,-0.0073,-0.0065
174208,N1O1Pu2S1,73f7c1fe52,Pu2SNO,"['N', 'O', 'S', 'Pu']",5,83.65,10.9195,3m,P3m1,156,trigonal,-58.2649,-2.4617,-0.1707,3D,0.0021,True,0.0,,-0.1707,-0.0147
177422,O56S12Ta8,7618cafbca,Ta2S3O14,"['O', 'S', 'Ta']",76,1012.611,4.4741,mm2,Pna2_1,33,orthorhombic,-593.506,-2.2621,-0.0362,3D,,True,0.0,,-0.0362,-0.0362
182723,Ba1Ge2O56S16Sr3,79a2cf32b5,BaSr3Ge2(S2O7)8,"['O', 'S', 'Ge', 'Sr', 'Ba']",78,1206.5695,2.6898,1,P1,1,triclinic,-517.5414,-2.0261,-0.0009,intercalated ion,3.3746,True,0.0,,-0.0009,-0.0009
185474,F12K6O16Rb2S4Sb4,7b6e108ad2,K3RbSb2S2(O4F3)2,"['O', 'F', 'S', 'K', 'Rb', 'Sb']",44,764.1365,3.2701,2,P2_1,4,monoclinic,-251.8676,-2.4563,-0.0024,intercalated ion,,True,0.0,,-0.0024,-0.0003
188140,Au2O15S3Se1,7d3aa234ab,Au2Se(SO5)3,"['O', 'S', 'Se', 'Au']",21,327.294,4.1049,1,P1,1,triclinic,-122.7616,-1.2423,-0.0203,2D,1.0266,True,0.0,,-0.0203,-0.0193
194672,F6K2O2S2,8196542196,KSOF3,"['O', 'F', 'S', 'K']",12,212.5083,2.2529,2,P2_1,4,monoclinic,-59.3611,-2.2919,-0.0104,intercalated ion,4.9471,True,0.0,,-0.0104,-0.0104
199466,Ge1O28S8Tc1,84c965ae5a,TcGe(S2O7)4,"['O', 'S', 'Ge', 'Tc']",38,591.8752,2.4553,1,P1,1,triclinic,-249.4939,-1.6546,-0.0128,2D,1.002,False,0.0,,-0.0128,-0.0128
210091,F6O4S1,8bd7f455c8,S(O2F3)2,"['O', 'F', 'S']",11,213.4814,1.6339,4mm,I4mm,107,tetragonal,-50.709,-1.392,-0.0522,0D,2.0484,False,0.0,,-0.0522,-0.0471
210860,F2Hg4O24Rb6S6,8c54b8c4c8,Rb3Hg2S3O12F,"['O', 'F', 'S', 'Rb', 'Hg']",42,759.9186,4.2163,2,P2_1,4,monoclinic,-234.5013,-1.905,-0.0073,intercalated ion,,False,0.0,,-0.0073,-0.0071
215625,O28Pt1S8Tc1,8f787cc744,TcPt(S2O7)4,"['O', 'S', 'Tc', 'Pt']",38,596.8171,2.7756,1,P1,1,triclinic,-247.7196,-1.5698,-0.0086,2D,0.3448,True,0.0,,-0.0086,-0.0076
228852,Np1O3S24,98240c4a41,Np(S8O)3,"['O', 'S', 'Np']",28,943.0902,1.8568,3m,R3m,160,trigonal,-148.311,-0.7587,-0.2868,0D,,False,0.0,,-0.2868,-0.2858
232881,O14S4Sr2,9adf50928b,SrS2O7,"['O', 'S', 'Sr']",20,363.0139,2.4129,m,Cc,9,monoclinic,-134.7841,-2.2794,-0.0377,intercalated ion,5.2763,False,0.0,,-0.0377,-0.0271
234310,As3F12Na8O16S4Sb1,9bd6965f62,Na8SbAs3S4(O4F3)4,"['O', 'F', 'Na', 'S', 'As', 'Sb']",44,575.7197,3.2958,m,Cm,8,monoclinic,-250.0452,-2.3343,-0.0015,2D,,True,0.0,,-0.0015,-0.0012
246065,F8Na12O32Rh1S8V3,a3a049449c,Na12V3RhS8(O4F)8,"['O', 'F', 'Na', 'S', 'V', 'Rh']",64,863.8575,2.7913,2,P2,3,monoclinic,-405.315,-2.3142,-0.0159,intercalated ion,,True,-0.0,,-0.0159,-0.0081
248224,O26Re4S2Se2,a509b66514,Re2SeSO13,"['O', 'S', 'Se', 'Re']",34,546.4312,4.2024,2,P2,3,monoclinic,-250.7545,-1.6784,-0.0045,2D,2.3592,True,0.0,,-0.0045,-0.001
251894,Au2O15S4,a772e9a5e6,Au2S4O15,"['O', 'S', 'Au']",21,315.2571,4.0146,1,P1,1,triclinic,-126.2699,-1.3789,-0.0268,2D,1.107,True,0.0,,-0.0268,-0.0261
256366,Ag9F2K8O36S8,aa7e9aa71a,K8Ag9S8(O18F)2,"['O', 'F', 'S', 'K', 'Ag']",63,1045.6378,3.4208,1,P1,1,triclinic,-355.6182,-1.6857,-0.0179,intercalated ion,,True,0.0,,-0.0179,-0.0171
273677,O14S2Se4,b6103e0f4b,Se2SO7,"['O', 'S', 'Se']",20,319.0852,3.1431,mm2,Pmn2_1,31,orthorhombic,-118.752,-1.3612,-0.037,0D,2.9423,False,0.0,,-0.037,-0.037
278294,Gd2O28S8,b9286ded88,Gd(S2O7)2,"['O', 'S', 'Gd']",38,580.7891,2.9134,1,P1,1,triclinic,-275.8587,-2.0019,-0.1301,3D,0.0173,False,0.0,,-0.1301,-0.0868
287548,K4O1Pm4S7,bf3d7a0db4,K4Pm4S7O,"['O', 'S', 'K', 'Pm']",16,435.214,3.7271,1,P1,1,triclinic,-92.5007,-2.1971,-0.129,intercalated ion,,True,0.0,,-0.129,-0.1047
294570,Bi3La1O12S2,c3f507a063,LaBi3(SO6)2,"['O', 'S', 'La', 'Bi']",18,245.0948,6.9239,1,P1,1,triclinic,-123.6151,-2.1867,-0.0331,3D,,False,0.0,,-0.0331,-0.0071
304347,Al4F12K2O16Rb6S4,ca6f5ba039,KRb3Al2S2(O4F3)2,"['O', 'F', 'Al', 'S', 'K', 'Rb']",44,656.1625,3.3181,2,P2_1,4,monoclinic,-268.0534,-2.8708,-0.0129,intercalated ion,,True,0.0,,-0.0129,-0.011
307291,Al6Cd4O16S1,cc69e68e71,Al6Cd4SO16,"['O', 'Al', 'S', 'Cd']",27,397.3509,3.7594,-4,I-4,82,tetragonal,-181.0515,-2.6512,-0.0272,3D,2.8642,False,0.0,,-0.0272,-0.0221
313718,Bi3O12S2Tb1,d0a44c13bd,TbBi3(SO6)2,"['O', 'S', 'Tb', 'Bi']",18,236.8535,7.3052,1,P1,1,triclinic,-123.2211,-2.1816,-0.0088,2D,3.0596,True,0.0,,-0.0088,-0.003
329386,Ca2Ge2O56S16Sr2,db0ae3d4a8,SrCaGe(S2O7)4,"['O', 'S', 'Ca', 'Ge', 'Sr']",78,1138.9858,2.6384,m,Pc,7,monoclinic,-516.7911,-2.0114,-0.006,intercalated ion,3.4871,True,0.0,,-0.006,-0.006
336121,Au2La1O16P1S3,df8f92e46c,LaPAu2S3O16,"['O', 'P', 'S', 'La', 'Au']",23,361.9375,4.2025,1,P1,1,triclinic,-153.2127,-1.9452,-0.0709,3D,,True,0.0,,-0.0709,-0.0226
336694,O3Re1S24,dff556cb26,Re(S8O)3,"['O', 'S', 'Re']",28,961.2715,1.7339,3m,R3m,160,trigonal,-144.2928,-0.6332,-0.2915,0D,,True,-0.0,,-0.2915,-0.2905
339553,Al4Cd4Ga2O16S1,e1d8458df9,Al4Cd4Ga2SO16,"['O', 'Al', 'S', 'Ga', 'Cd']",27,406.027,4.0287,1,P1,1,triclinic,-173.767,-2.4346,-0.0217,3D,,True,0.0,,-0.0217,-0.0182
352450,F8Na12O32Rh2S8V2,ea650a4a07,Na6VRhS4(O4F)4,"['O', 'F', 'Na', 'S', 'V', 'Rh']",64,863.8575,2.8912,222,P2_12_12,18,orthorhombic,-398.8333,-2.2398,-0.0109,intercalated ion,,True,0.0,,-0.0109,-0.008
354165,O3P1S24,eb7d9dfb00,P(S8O)3,"['O', 'P', 'S']",28,933.8026,1.5089,3m,R3m,160,trigonal,-138.5947,-0.6808,-0.3351,0D,,True,-0.0,,-0.3351,-0.3349
364327,Ag2F6O18Pt1S6,f238f0ac9b,Ag2PtS6(O3F)6,"['O', 'F', 'S', 'Ag', 'Pt']",33,538.3103,3.1007,32,P321,150,trigonal,-192.0656,-1.666,-0.0119,3D,1.7491,True,0.0,,-0.0119,-0.0109
370196,O28S8Tc1Ti1,f63580c446,TiTc(S2O7)4,"['O', 'S', 'Ti', 'Tc']",38,596.4742,2.3674,1,P1,1,triclinic,-258.2267,-1.7983,-0.0113,2D,1.0538,False,0.0,,-0.0113,-0.0101
374822,Al4F12K2O16Rb6S4,f947d9dbc9,KRb3Al2S2(O4F3)2,"['O', 'F', 'Al', 'S', 'K', 'Rb']",44,656.1625,3.3181,2,P2_1,4,monoclinic,-268.0534,-2.8708,-0.0129,intercalated ion,,True,0.0,,-0.0129,-0.011
376157,F10La6O2S2,fa2ce9d0b4,La3SOF5,"['O', 'F', 'S', 'La']",20,339.2166,5.4804,m,Pm,6,monoclinic,-149.0367,-4.1069,-0.0063,3D,3.1256,True,0.0,,-0.0063,-0.0062
377665,Gd2O15S4,fb23ca92ef,Gd2S4O15,"['O', 'S', 'Gd']",21,309.078,3.6681,1,P1,1,triclinic,-169.6457,-2.4156,-0.2856,3D,2.6531,False,0.0,,-0.2856,-0.168
378221,Al4F12K7O16Rb1S4,fb80ad5a96,K7RbAl4S4(O4F3)4,"['O', 'F', 'Al', 'S', 'K', 'Rb']",44,656.1625,2.7314,1,P1,1,triclinic,-269.1968,-2.8821,-0.0024,intercalated ion,,False,0.0,,-0.0024,-0.0019
382891,Gd8O24S3Se1,feac4985e2,Gd8Se(SO8)3,"['O', 'S', 'Se', 'Gd']",36,458.3514,6.5832,m,Pm,6,monoclinic,-356.8557,-3.0442,-0.2256,3D,3.0707,False,0.0,,-0.2256,-0.0264