Unnamed: 0,Composition,MaterialId,Reduced Formula,Elements,NSites,Volume,Density,Point Group,Space Group,Space Group Number,Crystal System,Corrected Energy,Formation Energy Per Atom,Decomposition Energy Per Atom,Dimensionality Cheon,Bandgap,Is Train,Decomposition Energy Per Atom All,Decomposition Energy Per Atom Relative,Decomposition Energy Per Atom MP,Decomposition Energy Per Atom MP OQMD
170891,Bi1F28Y3Zr4,71b677cacf,Y3Zr4BiF28,"['F', 'Y', 'Zr', 'Bi']",36,581.1978,3.9215,1,P1,1,triclinic,-256.2935,-4.0359,-0.0058,3D,5.654,False,0.0,,-0.0058,-0.0056
177353,Bi3F28Tm1Zr4,760decc1fb,TmZr4Bi3F28,"['F', 'Zr', 'Tm', 'Bi']",36,593.7866,4.7338,1,P1,1,triclinic,-235.8992,-3.6678,-0.0105,3D,5.39,True,0.0,,-0.0105,-0.0104
177677,Bi1F36Li1,7642debab1,LiBiF36,"['Li', 'F', 'Bi']",38,705.817,2.1171,1,P1,1,triclinic,-105.9786,-0.8254,-0.3012,intercalated ion,,True,0.0,,-0.3012,-0.3002
186193,Bi1F8Na3,7be6070db0,Na3BiF8,"['F', 'Na', 'Bi']",12,170.0993,4.1971,-4,I-4,82,tetragonal,-54.9589,-2.6508,-0.0154,intercalated ion,1.6918,True,0.0,,-0.0154,-0.0146
194085,Bi1F34N1,81376822a6,BiNF34,"['N', 'F', 'Bi']",36,659.4485,2.188,1,P1,1,triclinic,-105.1041,-0.7746,-0.3919,0D,,True,0.0,,-0.3919,-0.331
197487,Bi1F30Np6Sb1,8373fd0eb6,Np6BiSbF30,"['F', 'Sb', 'Bi', 'Np']",38,612.8637,6.2933,2,C2,5,monoclinic,-281.4018,-3.6408,-0.0284,3D,0.0007,False,0.0,,-0.0284,-0.0283
202635,Bi3F28Hf4Tm1,86e7ffda29,TmHf4Bi3F28,"['F', 'Tm', 'Hf', 'Bi']",36,594.5248,5.7028,1,P1,1,triclinic,-244.7001,-3.7557,-0.0274,3D,,True,0.0,,-0.0274,-0.0271
209259,Bi1Ce1F14Re2,8b42e0a343,CeRe2BiF14,"['F', 'Ce', 'Re', 'Bi']",18,299.9258,5.4672,1,P1,1,triclinic,-113.7939,-2.9067,-0.0371,3D,0.0035,True,0.0,,-0.0371,-0.0331
212066,Ba1Bi2F12,8d23a444c8,BaBi2F12,"['F', 'Ba', 'Bi']",15,290.8704,4.4716,1,P1,1,triclinic,-71.7798,-2.6095,-0.0563,intercalated ion,2.116,False,0.0,,-0.0563,-0.0553
213814,Bi2F28Sr1Tb1Tc4,8e44f2298c,SrTbTc4Bi2F28,"['F', 'Sr', 'Tc', 'Tb', 'Bi']",36,565.7434,4.6624,1,P1,1,triclinic,-213.9262,-2.9127,-0.0922,intercalated ion,,True,0.0,,-0.0922,-0.0915
224977,Bi2F14Zr2,95a8cac358,ZrBiF7,"['F', 'Zr', 'Bi']",18,307.2112,4.683,2,P2_1,4,monoclinic,-114.1774,-3.4745,-0.0114,3D,5.1221,True,0.0,,-0.0114,-0.0114
225434,Bi3F28Sb1Tc4,95f2f59385,Tc4Bi3SbF28,"['F', 'Tc', 'Sb', 'Bi']",36,570.189,4.8712,1,P1,1,triclinic,-204.084,-2.5923,-0.0758,3D,,True,0.0,,-0.0758,-0.0758
227592,Bi1F20Ta3,9751a03136,Ta3BiF20,"['F', 'Ta', 'Bi']",24,418.0519,4.4956,2,C2,5,monoclinic,-154.8282,-3.214,-0.0013,0D,2.5794,False,-0.0,,-0.0013,-0.0013
228549,Bi1F3S24,97edf1c398,Bi(S8F)3,"['F', 'S', 'Bi']",28,964.9013,1.7821,3m,R3m,160,trigonal,-130.7092,-0.7789,-0.382,0D,,True,0.0,,-0.382,-0.382
237007,Bi2F28Pt4Tb1Y1,9da493054a,TbYBi2Pt4F28,"['F', 'Y', 'Tb', 'Pt', 'Bi']",36,544.3791,6.0338,1,P1,1,triclinic,-188.3348,-2.5458,-0.0355,3D,2.1564,False,0.0,,-0.0355,-0.0355
240936,Bi3F28Y1Zr4,a02e850f4a,YZr4Bi3F28,"['F', 'Y', 'Zr', 'Bi']",36,599.1898,4.4693,1,P1,1,triclinic,-237.7371,-3.6636,-0.0101,3D,5.409,True,0.0,,-0.0101,-0.01
241911,Bi4F28Mo3Tm1,a0cf09a383,TmBi4Mo3F28,"['F', 'Mo', 'Tm', 'Bi']",36,580.9828,5.2151,1,P1,1,triclinic,-211.7847,-2.9358,-0.0562,3D,,True,0.0,,-0.0562,-0.0049
252179,Bi3Ce1F28Zr4,a7a9c9d4fb,CeZr4Bi3F28,"['F', 'Zr', 'Ce', 'Bi']",36,616.7208,4.4801,1,P1,1,triclinic,-236.8826,-3.6546,-0.0101,3D,0.1898,True,0.0,,-0.0101,-0.0101
260703,Bi1Ce1F14Hf2,ad6ce8fb48,CeHf2BiF14,"['F', 'Ce', 'Hf', 'Bi']",18,307.5742,5.2479,1,P1,1,triclinic,-126.9821,-3.9158,-0.01,3D,0.2615,False,0.0,,-0.01,-0.0099
266234,Bi1F12Mg1Ta1,b11ed7604d,MgTaBiF12,"['F', 'Mg', 'Ta', 'Bi']",15,242.9107,4.3902,1,P1,1,triclinic,-86.4713,-3.079,-0.0319,1D,2.4769,True,0.0,,-0.0319,-0.0319
267457,Bi1F28Gd3Tc4,b1f3ac8de3,Gd3Tc4BiF28,"['F', 'Tc', 'Gd', 'Bi']",36,561.3513,4.7468,1,P1,1,triclinic,-254.857,-3.1587,-0.1891,3D,,True,0.0,,-0.1891,-0.0952
268720,Bi4F28Lu1Pt3,b2cc21692b,LuBi4Pt3F28,"['F', 'Lu', 'Pt', 'Bi']",36,579.9464,6.0933,1,P1,1,triclinic,-180.7729,-2.471,-0.0378,3D,0.0003,False,0.0,,-0.0378,-0.0377
270860,Bi1Cd1F12V1,b43305568c,VCdBiF12,"['F', 'V', 'Cd', 'Bi']",15,243.5796,4.0925,1,P1,1,triclinic,-74.4109,-2.5051,-0.0346,1D,,True,0.0,,-0.0346,-0.0345
281080,Bi1F20Nb3,bb09e2b4de,Nb3BiF20,"['F', 'Nb', 'Bi']",24,430.1057,3.3499,2,C2,5,monoclinic,-145.6738,-3.0521,-0.0017,0D,2.6742,True,-0.0,,-0.0017,-0.0017
281434,Ba7Bi2F2Pb4Sr3,bb4c424fff,Ba7Sr3Bi2Pb4F2,"['F', 'Sr', 'Ba', 'Pb', 'Bi']",18,695.4232,5.9908,m,Cm,8,monoclinic,-68.0962,-1.2856,-0.0122,intercalated ion,,True,0.0,,-0.0122,-0.006
283137,Bi1F20N2Ru1,bc5ec2f155,BiRu(NF10)2,"['N', 'F', 'Ru', 'Bi']",24,374.3541,3.185,1,P1,1,triclinic,-103.223,-1.4648,-0.2925,0D,,True,0.0,,-0.2925,-0.1081
283980,Bi1F3S24,bce645e704,Bi(S8F)3,"['F', 'S', 'Bi']",28,907.6428,1.8945,3m,R3m,160,trigonal,-130.7101,-0.779,-0.382,0D,,True,0.0,,-0.382,-0.382
292912,Ba10Bi2F1Sn4,c2defb62b3,Ba10Sn4Bi2F,"['F', 'Sn', 'Ba', 'Bi']",17,726.7943,5.2208,-42m,I-42m,121,tetragonal,-62.5947,-1.0397,-0.0074,intercalated ion,,True,0.0,,-0.0074,-0.0073
296365,Bi4F28Hf3Ti1,c51d63cd30,Hf3TiBi4F28,"['F', 'Ti', 'Hf', 'Bi']",36,585.6346,5.5326,1,P1,1,triclinic,-232.9887,-3.5039,-0.037,3D,,True,0.0,,-0.037,-0.037
300714,Bi5Ce1F30Y2,c80a6b833f,CeY2Bi5F30,"['F', 'Y', 'Ce', 'Bi']",38,604.8264,5.3064,1,P1,1,triclinic,-211.6376,-3.052,-0.0138,3D,0.0069,True,0.0,,-0.0138,-0.0138
301468,Bi6F34Sr8,c88e87bfd9,Sr4Bi3F17,"['F', 'Sr', 'Bi']",48,730.8598,5.9091,1,P1,1,triclinic,-270.3294,-3.5101,-0.0045,intercalated ion,,True,-0.0,,-0.0044,-0.0044
304828,Bi1Cl1F20Sb2,cac389fd9b,BiSb2ClF20,"['F', 'Cl', 'Sb', 'Bi']",24,406.8427,3.5424,2,C2,5,monoclinic,-102.0699,-2.0768,-0.0015,0D,2.0085,True,0.0,,-0.0015,-0.0013
306235,Bi2F14Pb1Rh1,cbb4fa43d2,Bi2RhPbF14,"['F', 'Rh', 'Pb', 'Bi']",18,293.1823,5.6301,1,P1,1,triclinic,-88.1195,-2.3612,-0.0227,3D,,True,0.0,,-0.0227,-0.0179
310908,Bi3F28Tb1Zr4,ceca7cbbb7,TbZr4Bi3F28,"['F', 'Zr', 'Tb', 'Bi']",36,600.1031,4.6562,1,P1,1,triclinic,-236.0637,-3.668,-0.012,3D,5.4093,True,0.0,,-0.012,-0.0115
328748,Bi2F16K6,da9c5d97de,K3BiF8,"['F', 'K', 'Bi']",24,411.7251,3.8578,6mm,P6_3mc,186,hexagonal,-110.1608,-2.7139,-0.0505,intercalated ion,0.3845,True,0.0,,-0.0505,-0.0477
329060,Bi1F28Sb3Tc4,dad5684e5e,Tc4BiSb3F28,"['F', 'Tc', 'Sb', 'Bi']",36,580.3043,4.2871,1,P1,1,triclinic,-203.004,-2.549,-0.0528,3D,,True,0.0,,-0.0528,-0.0528
333182,Bi1F10N1,dd9fe476e7,BiNF10,"['N', 'F', 'Bi']",12,205.2382,3.3413,m,Cm,8,monoclinic,-49.1919,-1.4876,-0.3393,0D,2.7106,True,0.0,,-0.3393,-0.1567
334203,Bi4F28Lu1Mo3,de47f3711a,LuBi4Mo3F28,"['F', 'Mo', 'Lu', 'Bi']",36,579.9463,5.2417,1,P1,1,triclinic,-211.8965,-2.9377,-0.0213,3D,,True,0.0,,-0.0213,-0.0147
338368,Bi1Ce6F30Tb1,e115796a39,TbCe6BiF30,"['F', 'Ce', 'Tb', 'Bi']",38,612.4545,4.8222,2,C2,5,monoclinic,-252.5227,-3.9751,-0.0068,3D,1.6804,True,0.0,,-0.0068,-0.0068
339060,Bi1F28Tb3Zr4,e185abf53f,Tb3Zr4BiF28,"['F', 'Zr', 'Tb', 'Bi']",36,582.4666,4.5118,1,P1,1,triclinic,-251.2607,-4.0488,-0.0069,3D,5.6802,True,0.0,,-0.0069,-0.0054
339775,Bi4F28Hf3V1,e1feb51022,Hf3VBi4F28,"['F', 'V', 'Hf', 'Bi']",36,585.6346,5.5413,1,P1,1,triclinic,-230.6787,-3.4067,-0.0344,3D,,True,0.0,,-0.0344,-0.0343
348157,Bi1F28La3Tc4,e79694bbd0,La3Tc4BiF28,"['F', 'Tc', 'La', 'Bi']",36,597.5917,4.306,1,P1,1,triclinic,-228.7277,-3.1963,-0.0985,3D,,True,0.0,,-0.0985,-0.0985
348247,Bi3F28Gd1Ru4,e7a6a3fde5,GdBi3Ru4F28,"['F', 'Ru', 'Gd', 'Bi']",36,565.7438,5.0497,1,P1,1,triclinic,-208.2052,-2.5505,-0.0655,3D,,True,0.0,,-0.0655,-0.03
349133,Bi4F28Pt3Tc1,e833b2c0ed,TcBi4Pt3F28,"['F', 'Tc', 'Pt', 'Bi']",36,562.3568,6.0566,1,P1,1,triclinic,-179.9655,-2.2864,-0.0586,3D,1.3099,True,0.0,,-0.0586,-0.0573
350267,Bi1F30Np6Y1,e8f00cfba7,YNp6BiF30,"['F', 'Y', 'Bi', 'Np']",38,612.0104,6.2129,2,C2,5,monoclinic,-290.9442,-3.8304,-0.0348,3D,0.0041,False,0.0,,-0.0348,-0.0347
358370,Bi3F28Gd1Hf4,ee45502d50,GdHf4Bi3F28,"['F', 'Gd', 'Hf', 'Bi']",36,594.5248,5.6702,1,P1,1,triclinic,-254.0665,-3.7486,-0.0308,3D,,True,0.0,,-0.0308,-0.0296
369181,Bi1F14Hf2La1,f585602e65,LaHf2BiF14,"['F', 'La', 'Hf', 'Bi']",18,307.2403,5.2471,1,P1,1,triclinic,-126.5961,-3.9497,-0.0054,3D,5.7499,True,0.0,,-0.0054,-0.0054
372314,Bi1F20N2V1,f79995e6a6,VBi(NF10)2,"['N', 'F', 'V', 'Bi']",24,358.4186,3.0944,1,P1,1,triclinic,-107.3755,-1.6458,-0.3282,0D,,True,-0.0,,-0.3282,-0.1456
373968,Bi4F28Rh1V3,f8b275d5bb,V3Bi4RhF28,"['F', 'V', 'Rh', 'Bi']",36,564.7239,4.7741,1,P1,1,triclinic,-203.0085,-2.7586,-0.0164,3D,,True,0.0,,-0.0164,-0.0162
376247,Bi2F14Hf2,fa3b75209d,HfBiF7,"['F', 'Hf', 'Bi']",18,300.5622,5.7508,2,P2_1,4,monoclinic,-118.5699,-3.5619,-0.0341,3D,5.4333,False,0.0,,-0.0341,-0.0341
380631,Bi7F30Sb1,fd26d77541,Bi7SbF30,"['F', 'Sb', 'Bi']",38,611.3392,5.8523,32,R32,155,trigonal,-186.1119,-2.5634,-0.0207,intercalated molecule,0.0032,True,0.0,,-0.0207,-0.0206
381699,Bi1F12Rh1Sr1,fdde84ed6c,SrBiRhF12,"['F', 'Sr', 'Rh', 'Bi']",15,296.3623,3.5159,1,P1,1,triclinic,-72.2286,-2.4231,-0.0295,0D,,True,0.0,,-0.0295,-0.0287