Unnamed: 0,Composition,MaterialId,Reduced Formula,Elements,NSites,Volume,Density,Point Group,Space Group,Space Group Number,Crystal System,Corrected Energy,Formation Energy Per Atom,Decomposition Energy Per Atom,Dimensionality Cheon,Bandgap,Is Train,Decomposition Energy Per Atom All,Decomposition Energy Per Atom Relative,Decomposition Energy Per Atom MP,Decomposition Energy Per Atom MP OQMD
168986,Hf4O4Pd2Pt6Zr12,706ce2b843,Hf2Zr6PdPt3O2,"['O', 'Zr', 'Pd', 'Hf', 'Pt']",28,493.4818,10.9562,mm2,Ima2,46,orthorhombic,-249.9115,-1.4619,-0.0099,3D,0.0006,False,-0.0,,-0.0099,-0.0001
169341,O2Sn6Ti5Zr5,70aad91709,Zr5Ti5(Sn3O)2,"['O', 'Ti', 'Zr', 'Sn']",18,329.8521,7.2478,mm2,Amm2,38,orthorhombic,-135.4706,-1.0723,-0.0289,3D,0.0016,True,0.0,,-0.0289,-0.0283
178996,Cd2O12Te2Zr2,772739319b,ZrCdTeO6,"['O', 'Zr', 'Cd', 'Te']",18,241.7637,5.8688,-42m,P-42_1m,113,tetragonal,-125.3526,-2.2638,-0.0331,3D,2.3076,True,0.0,,-0.0331,-0.0057
179202,Cu4O4Zn4Zr16,774b51a174,Zr4ZnCuO,"['O', 'Cu', 'Zn', 'Zr']",28,483.2549,7.0077,3m,R3m,160,trigonal,-206.5546,-1.0201,-0.032,3D,,True,0.0,,-0.032,-0.0152
179663,Al1Cs4Ga3O64P16Zr8,779ecaed27,Cs4Zr8AlGa3(PO4)16,"['O', 'Al', 'P', 'Ga', 'Zr', 'Cs']",96,1547.4735,3.2375,m,Pm,6,monoclinic,-782.749,-3.0695,-0.001,intercalated ion,,False,0.0,,-0.001,-0.001
184373,Hf2O12Y4Zr1,7ab6c9980e,Y4Hf2ZrO12,"['O', 'Y', 'Zr', 'Hf']",19,256.6014,6.4442,1,P1,1,triclinic,-189.5668,-3.9928,-0.0213,3D,4.3454,True,-0.0,,-0.0213,-0.0198
193926,Ca8O64V8Zr20,811c9404a0,Ca2Zr5V2O16,"['O', 'Ca', 'V', 'Zr']",100,1217.3447,4.8787,mm2,Iba2,45,orthorhombic,-923.254,-3.4691,-0.0037,intercalated ion,,True,0.0,,-0.0037,-0.0037
193984,Cd2O12Te2Zr2,8125bbaf86,ZrCdTeO6,"['O', 'Zr', 'Cd', 'Te']",18,241.6082,5.8726,-42m,P-42_1m,113,tetragonal,-125.352,-2.2638,-0.0331,3D,2.319,True,0.0,,-0.0331,-0.0057
194780,Nb3O6Tc5Zr18,81a9432189,Zr18Nb3Tc5O6,"['O', 'Zr', 'Nb', 'Tc']",32,557.7739,7.4628,mm2,Amm2,38,orthorhombic,-306.3739,-1.2725,-0.0127,3D,0.0032,True,0.0,,-0.0127,-0.0103
196142,Hf7Nb2O6Re6Zr11,8286cf3490,Hf7Zr11Nb2(ReO)6,"['O', 'Zr', 'Nb', 'Hf', 'Re']",32,548.6708,11.0525,m,Cm,8,monoclinic,-330.3245,-1.3138,-0.0231,3D,,True,0.0,,-0.0231,-0.0216
199437,As2Ga4O1Zr10,84c361c682,Zr10Ga4As2O,"['O', 'Ga', 'As', 'Zr']",17,320.164,7.038,m,Cm,8,monoclinic,-129.3064,-1.0265,-0.0444,3D,0.0058,True,0.0,,-0.0444,-0.0335
209363,O13Pb4Sn1W2Zr1,8b56cf6f8e,ZrSnPb4W2O13,"['O', 'Zr', 'Sn', 'W', 'Pb']",21,312.8671,8.5684,m,Cm,8,monoclinic,-163.4513,-2.1811,-0.0148,3D,0.4981,True,0.0,,-0.0148,-0.0139
214881,Nb2O24P6Sn1Zr1,8ef6d5b4e0,ZrNb2Sn(PO4)6,"['O', 'P', 'Zr', 'Nb', 'Sn']",34,512.0289,3.1314,1,P1,1,triclinic,-281.8838,-2.8792,-0.015,intercalated ion,2.8809,True,0.0,,-0.015,-0.0045
215716,O15Rh4Sr6Zr1,8f8ab83d6f,Sr6ZrRh4O15,"['O', 'Sr', 'Zr', 'Rh']",26,367.3066,5.735,32,R32,155,trigonal,-186.4044,-2.4632,-0.0006,intercalated ion,0.2461,True,0.0,,-0.0006,-0.0005
216762,Ir5O4Rh3Zr16,90409ac705,Zr16Ir5Rh3O4,"['O', 'Zr', 'Rh', 'Ir']",28,487.4411,9.5161,3m,R3m,160,trigonal,-261.6883,-1.3874,-0.0286,3D,0.013,True,0.0,,-0.0286,-0.0068
217712,O4Pd4Pt1Rh3Zr16,90e555d8f1,Zr16Pd4PtRh3O4,"['O', 'Zr', 'Rh', 'Pd', 'Pt']",28,494.091,8.2442,3m,R3m,160,trigonal,-242.5345,-1.3249,-0.0216,3D,inf,True,0.0,,-0.0216,-0.0076
224901,Ir3O6Ta5Zr18,959b14f93e,Zr18Ta5(IrO2)3,"['O', 'Zr', 'Ta', 'Ir']",32,565.6611,9.4508,m,Pm,6,monoclinic,-312.7145,-1.3551,-0.0394,3D,0.0043,True,0.0,,-0.0394,-0.0191
225929,Al1O1Sn5Zr10,9646b888bf,Zr10AlSn5O,"['O', 'Al', 'Zr', 'Sn']",17,359.2978,7.1578,m,Cm,8,monoclinic,-128.7056,-0.8522,-0.0074,3D,0.0082,False,0.0,,-0.0074,-0.0055
226078,O4Pd5Rh3Zr16,965f019154,Zr16Pd5Rh3O4,"['O', 'Zr', 'Rh', 'Pd']",28,493.744,7.9518,3m,R3m,160,trigonal,-240.7924,-1.2945,-0.019,3D,0.0032,True,0.0,,-0.019,-0.0085
227875,Ge2O1Si4Zr10,97822a8476,Zr10Si4Ge2O,"['O', 'Si', 'Ge', 'Zr']",17,310.5704,6.3405,m,Cm,8,monoclinic,-140.2037,-1.1077,-0.0147,3D,0.0217,False,0.0,,-0.0147,-0.0143
228358,Al7O2Zn5Zr12,97ce8c28e3,Zr12Al7Zn5O2,"['O', 'Al', 'Zn', 'Zr']",26,451.3708,6.0429,3m,R3m,160,trigonal,-167.1812,-0.8537,-0.0436,3D,0.0053,True,0.0,,-0.0436,-0.0375
230048,Ir6O4Pd2Zr16,98f366f796,Zr8Ir3PdO2,"['O', 'Zr', 'Pd', 'Ir']",28,494.6976,9.6999,mm2,Imm2,44,orthorhombic,-258.7103,-1.3845,-0.0311,3D,0.0217,False,0.0,,-0.0311,-0.017
232179,Ir2O4Pd4Rh2Zr16,9a6d5a0f8e,Zr8IrPd2RhO2,"['O', 'Zr', 'Rh', 'Pd', 'Ir']",28,494.7526,8.5234,m,Cm,8,monoclinic,-246.8391,-1.3271,-0.0256,3D,0.0048,False,0.0,,-0.0256,-0.0117
234346,O24P6W1Zr3,9bdd509bac,Zr3P6WO24,"['O', 'P', 'Zr', 'W']",34,525.9941,3.2433,3,R3,146,trigonal,-292.0451,-3.0063,-0.007,3D,2.818,True,0.0,,-0.007,-0.007
238778,As12Hf1Li4O48Zr7,9ecbf6271f,Li4HfZr7(AsO4)12,"['Li', 'O', 'As', 'Zr', 'Hf']",72,1128.5562,3.6959,1,P1,1,triclinic,-552.3746,-2.5213,-0.012,,3.8705,,0.0,,-0.012,-0.0077
240802,Bi1Lu5O12Zr1,a01662e87f,Lu5ZrBiO12,"['O', 'Zr', 'Lu', 'Bi']",19,251.7733,9.0161,1,P1,1,triclinic,-162.717,-3.5947,-0.0432,3D,1.8821,True,0.0,,-0.0432,-0.0296
243686,O4Pd2Zn6Zr16,a202a80e3e,Zr8Zn3PdO2,"['O', 'Zn', 'Zr', 'Pd']",28,491.5305,7.192,mm2,Ima2,46,orthorhombic,-205.4056,-1.1047,-0.0257,3D,0.0025,True,0.0,,-0.0257,-0.011
246673,O4Pt3Rh5Zr16,a402ea9f7a,Zr16Pt3Rh5O4,"['O', 'Zr', 'Rh', 'Pt']",28,494.532,8.8087,m,Cm,8,monoclinic,-250.9459,-1.4056,-0.032,3D,,True,-0.0,,-0.032,-0.0062
247358,Nb6O12Ta1Zr1,a47e6efec9,ZrTaNb6O12,"['O', 'Zr', 'Nb', 'Ta']",20,286.8499,5.9139,3,R3,146,trigonal,-197.6726,-2.8642,-0.0264,3D,0.0038,True,0.0,,-0.0264,-0.0262
249290,Ac5Ir1O12Zr1,a5c070e408,Ac5ZrIrO12,"['O', 'Zr', 'Ir', 'Ac']",19,317.6182,8.4195,2,C2,5,monoclinic,-161.2805,-3.3638,-0.0991,3D,,True,0.0,,-0.0991,-0.0914
249966,Hf3O28Si8Sr4Zr1,a63051c396,Sr4Hf3Zr(Si2O7)4,"['O', 'Si', 'Sr', 'Zr', 'Hf']",44,601.5441,4.5543,1,P1,1,triclinic,-383.5269,-3.5546,-0.0088,intercalated ion,,True,-0.0,,-0.0088,-0.0066
254673,Nb1O24P6W1Zr2,a95db2f05b,Zr2NbP6WO24,"['O', 'P', 'Zr', 'Nb', 'W']",34,519.3841,3.2899,1,P1,1,triclinic,-291.675,-2.9497,-0.0113,intercalated ion,,True,0.0,,-0.0113,-0.0049
255801,Hf1O2Sn6Tm6Zr3,aa20053c70,Tm6HfZr3(Sn3O)2,"['O', 'Zr', 'Sn', 'Tm', 'Hf']",18,390.2552,9.4037,32,P312,149,trigonal,-119.3983,-1.2772,-0.0119,3D,,False,0.0,,-0.0119,-0.0114
259748,Ce3Np1O16Zr4,acca91b7de,Ce3Zr4NpO16,"['O', 'Zr', 'Ce', 'Np']",24,305.4928,6.948,2,P2,3,monoclinic,-237.0009,-3.8707,-0.0399,3D,0.0031,True,0.0,,-0.0399,-0.0399
260083,Ca6Na2O24Ta2Zr6,ad03915929,NaCa3Zr3TaO12,"['O', 'Na', 'Ca', 'Zr', 'Ta']",40,514.8718,5.0947,2,P2_1,4,monoclinic,-349.2876,-3.5212,-0.001,intercalated ion,3.7171,True,0.0,,-0.001,-0.001
260338,Au3Hg3O2Zr10,ad315c4e31,Zr10Hg3Au3O2,"['O', 'Zr', 'Au', 'Hg']",18,344.9589,10.2865,m,Pm,6,monoclinic,-122.892,-0.9326,-0.0322,3D,0.0049,True,0.0,,-0.0322,-0.0097
260492,As12Li4O48Sn1Zr7,ad49d61f92,Li4Zr7Sn(AsO4)12,"['Li', 'O', 'As', 'Zr', 'Sn']",72,1122.0656,3.6288,1,P1,1,triclinic,-540.059,-2.4329,-0.0032,intercalated ion,3.1896,True,-0.0,,-0.0032,-0.0031
261470,As3O14V1Zr2,adf001c024,Zr2VAs3O14,"['O', 'V', 'As', 'Zr']",20,376.7732,3.0064,m,Pm,6,monoclinic,-158.0503,-2.4311,-0.0487,3D,2.9458,True,0.0,,-0.0487,-0.0053
261791,Hf3O2Sn6Y6Zr1,ae2a7c7fc1,Y6Hf3Zr(Sn3O)2,"['O', 'Y', 'Zr', 'Sn', 'Hf']",18,399.5161,7.9154,32,P312,149,trigonal,-134.0855,-1.273,-0.0285,3D,0.0063,True,0.0,,-0.0285,-0.0284
263249,K2O48P12Rb6Y4Zr4,af26d18a72,KRb3Y2Zr2(PO4)6,"['O', 'P', 'K', 'Rb', 'Y', 'Zr']",76,1152.439,3.5319,1,P1,1,triclinic,-611.9728,-3.1757,-0.0257,intercalated ion,,True,0.0,,-0.0257,-0.0099
266387,As3O14P1Sn1Zr1,b138d4bcee,ZrSnAs3PO14,"['O', 'P', 'As', 'Zr', 'Sn']",20,318.4463,3.5963,1,P1,1,triclinic,-146.0112,-2.2396,-0.0318,3D,2.7976,True,0.0,,-0.0318,-0.0263
266966,As1O2Zn1Zr6,b19cff286c,Zr6ZnAsO2,"['O', 'Zn', 'As', 'Zr']",10,171.0524,6.9864,mm2,Amm2,38,orthorhombic,-82.4271,-1.5326,-0.0142,3D,0.0011,True,0.0,,-0.0142,-0.0027
268226,Hf7O2Zn12Zr5,b27d16d665,Hf7Zr5Zn12O2,"['O', 'Zn', 'Zr', 'Hf']",26,433.3816,9.665,m,Cm,8,monoclinic,-155.705,-0.7021,-0.0149,3D,0.003,True,0.0,,-0.0149,-0.0139
268748,Hf15O6Re6Ta2Zr3,b2d08a7db6,Hf15Zr3Ta2(ReO)6,"['O', 'Zr', 'Hf', 'Ta', 'Re']",32,540.2446,13.912,1,P1,1,triclinic,-345.7087,-1.3324,-0.0476,3D,,True,0.0,,-0.0476,-0.0316
274376,K2O12Te3Zr1,b68eae0854,K2Zr(TeO4)3,"['O', 'K', 'Zr', 'Te']",18,283.5107,4.3589,2,C2,5,monoclinic,-116.1821,-2.0338,-0.087,intercalated ion,1.5508,True,0.0,,-0.087,-0.0791
279633,Hf7O6Re6Ta2Zr11,ba122a7286,Hf7Zr11Ta2(ReO)6,"['O', 'Zr', 'Hf', 'Ta', 'Re']",32,549.2375,11.5735,m,Cm,8,monoclinic,-334.3708,-1.3305,-0.0332,3D,0.0028,True,-0.0,,-0.0332,-0.0282
279893,Ga1O2Zn11Zr12,ba3d7d71d3,Zr12Zn11GaO2,"['O', 'Zn', 'Ga', 'Zr']",26,444.1691,7.1627,3m,R3m,160,trigonal,-149.187,-0.7628,-0.0408,3D,0.0073,True,0.0,,-0.0408,-0.0337
282666,Al1O2Zn11Zr12,bc14daf56b,Zr12AlZn11O2,"['O', 'Al', 'Zn', 'Zr']",26,443.1819,7.0185,3m,R3m,160,trigonal,-149.8439,-0.7605,-0.0481,3D,0.0046,True,0.0,,-0.0481,-0.0444
282918,Gd5O2Sn6Zr5,bc3b5619ce,Gd5Zr5(Sn3O)2,"['O', 'Zr', 'Sn', 'Gd']",18,394.927,8.3531,mm2,Amm2,38,orthorhombic,-169.8443,-1.2595,-0.1389,3D,,True,0.0,,-0.1389,-0.1356
284638,Ca6Na2O24Ta2Zr6,bd4dc991eb,NaCa3Zr3TaO12,"['O', 'Na', 'Ca', 'Zr', 'Ta']",40,514.8718,5.0947,2,P2_1,4,monoclinic,-349.2895,-3.5212,-0.0011,intercalated ion,3.7074,True,0.0,,-0.0011,-0.0011
286220,Hf3O2Sn6Tm6Zr1,be5d725f05,Tm6Hf3Zr(Sn3O)2,"['O', 'Zr', 'Sn', 'Tm', 'Hf']",18,387.5492,10.2172,32,P312,149,trigonal,-121.6436,-1.2453,-0.0171,3D,0.0063,True,0.0,,-0.0171,-0.0167
286679,O6Pt1Ta7Zr18,beacadb5f2,Zr18Ta7PtO6,"['O', 'Zr', 'Ta', 'Pt']",32,577.8633,9.1947,mm2,Amm2,38,orthorhombic,-312.3537,-1.2416,-0.0206,3D,0.0026,True,0.0,,-0.0206,-0.0146
288773,Ir1O4Pd4Rh3Zr16,c00b0929ec,Zr16IrPd4Rh3O4,"['O', 'Zr', 'Rh', 'Pd', 'Ir']",28,494.537,8.2272,3m,R3m,160,trigonal,-245.0694,-1.3166,-0.0244,3D,0.0023,True,-0.0,,-0.0244,-0.0107
291845,Hf4K4O12Zr1,c222ea23d7,K4Hf4ZrO12,"['O', 'K', 'Zr', 'Hf']",21,308.7546,6.2041,3m,P3m1,156,trigonal,-183.3251,-3.3872,-0.0031,intercalated ion,3.1763,True,0.0,,-0.0031,-0.0031
294782,As3Ga3O1Zr10,c41764b8a6,Zr10Ga3As3O,"['O', 'Ga', 'As', 'Zr']",17,317.6731,7.1203,3m,P31m,157,trigonal,-132.1079,-1.0954,-0.0351,3D,0.0118,True,-0.0,,-0.0351,-0.0256
296267,Hf5O6Re6Ta2Zr13,c50cc21e64,Hf5Zr13Ta2(ReO)6,"['O', 'Zr', 'Hf', 'Ta', 'Re']",32,550.7534,11.0154,mm2,Amm2,38,orthorhombic,-331.4057,-1.3259,-0.0269,3D,0.0011,False,-0.0,,-0.0269,-0.0233
297449,Hf3Ir6O2Zr7,c5da425de1,Hf3Zr7(Ir3O)2,"['O', 'Zr', 'Hf', 'Ir']",18,310.9671,12.5987,32,P312,149,trigonal,-176.8453,-1.3452,-0.0191,3D,0.0082,True,0.0,,-0.0191,-0.0169
300849,Hf1Nb6O12Zr1,c823844fed,HfZrNb6O12,"['O', 'Zr', 'Nb', 'Hf']",20,288.939,5.857,3,R3,146,trigonal,-198.5385,-3.0025,-0.0425,3D,1.0065,True,0.0,,-0.0425,-0.0416
305819,O2P1Pt1Zr6,cb693c31c2,Zr6PPtO2,"['O', 'P', 'Zr', 'Pt']",10,168.1369,7.9542,mm2,Amm2,38,orthorhombic,-90.1201,-1.7454,-0.0212,3D,0.0104,True,0.0,,-0.0212,-0.0024
306966,O13Pb4Sb1Ta1Zr2,cc315689fb,Zr2TaSbPb4O13,"['O', 'Zr', 'Sb', 'Ta', 'Pb']",21,316.8685,7.9757,m,Cm,8,monoclinic,-166.5454,-2.5852,-0.0112,3D,,False,0.0,,-0.0112,-0.0111
307744,Hf10O6Re6Ta2Zr8,ccb47dc126,Hf5Zr4Ta(ReO)3,"['O', 'Zr', 'Hf', 'Ta', 'Re']",32,545.7344,12.4444,1,P1,1,triclinic,-338.6252,-1.3313,-0.0387,3D,0.0009,True,0.0,,-0.0387,-0.0295
308372,O13Pb4Ta2Zr2,cd1e6d9a3e,Zr2Ta2Pb4O13,"['O', 'Zr', 'Ta', 'Pb']",21,317.0494,8.2812,mm2,Imm2,44,orthorhombic,-179.168,-2.8182,-0.0201,3D,1.6796,True,0.0,,-0.0201,-0.02
310318,Hf5O6Re3Ta5Zr13,ce6478041c,Hf5Zr13Ta5(ReO2)3,"['O', 'Zr', 'Hf', 'Ta', 'Re']",32,562.9865,10.7295,m,Pm,6,monoclinic,-327.5883,-1.2616,-0.0322,3D,0.0009,True,0.0,,-0.0322,-0.0101
313078,Au3Ir5O4Zr16,d032c4a6bd,Zr16Ir5Au3O4,"['O', 'Zr', 'Ir', 'Au']",28,502.3068,10.1673,3m,R3m,160,trigonal,-248.3027,-1.3476,-0.0465,3D,0.011,True,0.0,,-0.0465,-0.0222
316925,As1O14V3Zr2,d2c11d5add,Zr2V3AsO14,"['O', 'V', 'As', 'Zr']",20,385.8021,2.7296,m,Pm,6,monoclinic,-172.1602,-2.6941,-0.0214,3D,2.6357,False,0.0,,-0.0214,-0.0063
318674,Al6Hg2O4Zr12,d3ee3aa68e,Zr6Al3HgO2,"['O', 'Al', 'Zr', 'Hg']",24,412.1058,6.9376,2,P2_1,4,monoclinic,-175.7181,-1.2614,-0.011,3D,0.0038,True,0.0,,-0.011,-0.0104
322129,Ca4Ga3O28Ta4V1Zr4,d6354651fe,Ca4Zr4Ta4VGa3O28,"['O', 'Ca', 'V', 'Ga', 'Zr', 'Ta']",44,540.9495,6.0076,2,C2,5,monoclinic,-392.9061,-3.3307,-0.0089,intercalated ion,,False,0.0,,-0.0089,-0.0073
323062,Cd1Hf3O24P6Zr1,d6daa7ba83,Hf3ZrCd(PO4)6,"['O', 'P', 'Zr', 'Cd', 'Hf']",35,514.5167,4.2244,3,R3,146,trigonal,-301.6733,-3.1743,-0.0155,3D,3.7976,True,0.0,,-0.0155,-0.0122
324707,Bi1O12Tb5Zr1,d7fbd06515,Tb5ZrBiO12,"['O', 'Zr', 'Tb', 'Bi']",19,268.7933,7.9497,1,P1,1,triclinic,-161.9248,-3.5231,-0.0691,3D,1.8048,False,0.0,,-0.0691,-0.0281
326473,Ir4O4Pd4Zr16,d9258df570,Zr4IrPdO,"['O', 'Zr', 'Pd', 'Ir']",28,496.4762,9.0912,3m,R3m,160,trigonal,-250.3503,-1.3472,-0.0271,3D,0.0037,True,-0.0,,-0.0271,-0.0129
327414,Hf7O6Re4Ta4Zr11,d9c0e62ca2,Hf7Zr11Ta4(Re2O3)2,"['O', 'Zr', 'Hf', 'Ta', 'Re']",32,556.2443,11.3963,1,P1,1,triclinic,-331.8971,-1.2898,-0.0398,3D,0.0026,True,0.0,,-0.0398,-0.0216
327814,Br8Hf1O24Zr1,da056f1587,HfZr(BrO3)8,"['O', 'Br', 'Zr', 'Hf']",34,546.6978,3.9271,4,P4,75,tetragonal,-180.2038,-0.878,-0.0695,2D,3.3735,True,0.0,,-0.0695,-0.0657
329307,O2Sn6Tb4Y2Zr4,dafd6f9e3b,Tb2YZr2Sn3O,"['O', 'Y', 'Zr', 'Sn', 'Tb']",18,404.8451,7.8861,mm2,Ama2,40,orthorhombic,-123.3047,-1.3161,-0.0292,3D,0.0044,False,0.0,,-0.0292,-0.0292
333272,Hf2Lu4O12Zr1,ddaee27b0b,Lu4Hf2ZrO12,"['O', 'Zr', 'Lu', 'Hf']",19,241.9622,9.1966,1,P1,1,triclinic,-183.1416,-4.0642,-0.0063,3D,4.4299,False,0.0,,-0.0063,-0.0057
344145,Al5Hg3O4Zr12,e4e2c81d7d,Zr12Al5Hg3O4,"['O', 'Al', 'Zr', 'Hg']",24,416.0124,7.5655,3,R3,146,trigonal,-171.6024,-1.2333,-0.0109,3D,0.0023,False,-0.0,,-0.0109,-0.0085
344465,O12Te2Zn2Zr2,e519d33de4,ZrZnTeO6,"['O', 'Zn', 'Zr', 'Te']",18,223.2322,5.6568,-42m,P-42_1m,113,tetragonal,-127.4961,-2.3455,-0.0466,3D,2.7149,True,0.0,,-0.0466,-0.0391
347916,Hf9O6Re3Ta5Zr9,e769bcff37,Hf9Zr9Ta5(ReO2)3,"['O', 'Zr', 'Hf', 'Ta', 'Re']",32,559.164,11.8395,1,P1,1,triclinic,-333.2606,-1.2627,-0.0395,3D,0.0059,True,0.0,,-0.0395,-0.0119
348484,O2Sn6Ti3Zr7,e7cd5aba76,Zr7Ti3(Sn3O)2,"['O', 'Ti', 'Zr', 'Sn']",18,341.1869,7.429,32,P312,149,trigonal,-137.4167,-1.1079,-0.0201,3D,0.0073,True,0.0,,-0.0201,-0.0197
353738,Hf10O6Re4Ta4Zr8,eb3530b6cf,Hf5Zr4Ta2Re2O3,"['O', 'Zr', 'Hf', 'Ta', 'Re']",32,553.0804,12.2475,1,P1,1,triclinic,-336.0952,-1.2889,-0.0436,3D,0.0013,True,0.0,,-0.0436,-0.0212
354906,Ir2O4Pd5Rh1Zr16,ebf94a0a1c,Zr16Ir2Pd5RhO4,"['O', 'Zr', 'Rh', 'Pd', 'Ir']",28,496.32,8.5082,m,Cm,8,monoclinic,-244.3387,-1.3158,-0.0217,3D,0.0014,True,0.0,,-0.0217,-0.0109
355378,Li12O14Sn3Zr1,ec48fa06bb,Li12ZrSn3O14,"['Li', 'O', 'Zr', 'Sn']",30,313.6283,3.9955,1,P1,1,triclinic,-184.093,-2.3779,-0.013,intercalated ion,2.5336,True,0.0,,-0.013,-0.0015
361779,Cs2Np3O12Zr1,f0853c7113,Cs2ZrNp3O12,"['O', 'Zr', 'Cs', 'Np']",18,339.1151,6.17,2,C2,5,monoclinic,-167.168,-3.2561,-0.1716,intercalated ion,0.2656,True,0.0,,-0.1716,-0.1681
368600,O6Rh1Ta7Zr18,f5152a6734,Zr18Ta7RhO6,"['O', 'Zr', 'Rh', 'Ta']",32,576.0184,8.9585,mm2,Amm2,38,orthorhombic,-313.0059,-1.2216,-0.0184,3D,0.0022,True,0.0,,-0.0184,-0.0138
371516,O2P1Pd1Zr6,f715b1d72b,Zr6PPdO2,"['O', 'P', 'Zr', 'Pd']",10,168.0164,7.0836,mm2,Amm2,38,orthorhombic,-88.3358,-1.656,-0.0096,3D,0.0018,True,-0.0,,-0.0096,-0.0006
372614,Hf16O4Pt7Zr1,f7cdec4980,Hf16ZrPt7O4,"['O', 'Zr', 'Hf', 'Pt']",28,490.3568,14.821,3m,R3m,160,trigonal,-270.9615,-1.4575,-0.02,3D,0.0043,True,0.0,,-0.02,-0.0056
373380,Cu1O2Rh1Zr6,f84ed38074,Zr6CuRhO2,"['O', 'Cu', 'Zr', 'Rh']",10,168.6572,7.3428,mm2,Amm2,38,orthorhombic,-86.8621,-1.4216,-0.0282,3D,0.0044,True,0.0,,-0.0282,-0.0019
375520,Hf2O12Tb4Zr1,f9c0686570,Tb4Hf2ZrO12,"['O', 'Zr', 'Tb', 'Hf']",19,257.9099,8.2148,1,P1,1,triclinic,-182.4852,-4.0058,-0.037,3D,inf,True,0.0,,-0.037,-0.0188
377131,Hf9O2Zn12Zr3,facb026e6a,Hf9Zr3Zn12O2,"['O', 'Zn', 'Zr', 'Hf']",26,431.1055,10.3883,1,P1,1,triclinic,-158.2228,-0.6905,-0.0195,3D,0.0007,False,0.0,,-0.0195,-0.0158
379612,C17O1Zr20,fc75b789de,Zr20C17O,"['C', 'O', 'Zr']",38,527.2161,6.4399,1,P1,1,triclinic,-368.3067,-0.9355,-0.0244,3D,0.0023,True,0.0,,-0.0244,-0.0147
380327,Al1O2P1Zr6,fcf1c0361e,Zr6AlPO2,"['O', 'Al', 'P', 'Zr']",10,168.4433,6.2826,mm2,Amm2,38,orthorhombic,-86.6706,-1.633,-0.0241,3D,,True,0.0,,-0.0241,-0.011
382775,Al1As1O1Si4Zr10,fe968ddcdb,Zr10AlSi4AsO,"['O', 'Al', 'Si', 'As', 'Zr']",17,312.2677,6.0754,1,P1,1,triclinic,-139.0765,-1.0909,-0.0207,3D,,True,0.0,,-0.0207,-0.0189
383828,Hf9Nb3O6Re5Zr9,ff55a4fb37,Hf9Zr9Nb3Re5O6,"['O', 'Zr', 'Nb', 'Hf', 'Re']",32,549.9983,11.2711,1,P1,1,triclinic,-330.2285,-1.2959,-0.0298,3D,0.0021,True,-0.0,,-0.0298,-0.0262
384682,Hf6O6Re2Ta6Zr12,ffddf72755,Hf3Zr6Ta3ReO3,"['O', 'Zr', 'Hf', 'Ta', 'Re']",32,567.6154,10.8819,1,P1,1,triclinic,-327.4985,-1.2331,-0.0289,3D,,True,0.0,,-0.0289,-0.0093
384833,Al1O2Si1Zr6,fff9f0b3cc,Zr6AlSiO2,"['O', 'Al', 'Si', 'Zr']",10,171.1595,6.1549,mm2,Amm2,38,orthorhombic,-85.6788,-1.5326,-0.0244,3D,0.0107,True,-0.0,,-0.0244,-0.0102